V -t * -v 1.0a5 -a 0
A -t * -n 1 -p 0 -o 0x7fffffff -c 30 -a 1
A -t * -h 1 -m 1073741823 -s 0
n -t * -a 0 -s 0 -S UP -v circle -c black -i black
n -t * -a 1 -s 1 -S UP -v circle -c black -i black
n -t * -a 2 -s 2 -S UP -v circle -c black -i black
l -t * -s 0 -d 2 -S UP -r 100000000 -D 0.01 -c black
l -t * -s 1 -d 2 -S UP -r 100000000 -D 0.01 -c black
+ -t 0.1 -s 1 -d 2 -p tcp -e 40 -c 0 -i 0 -a 0 -x {1.0 2.0 0 ------- null}
- -t 0.1 -s 1 -d 2 -p tcp -e 40 -c 0 -i 0 -a 0 -x {1.0 2.0 0 ------- null}
h -t 0.1 -s 1 -d 2 -p tcp -e 40 -c 0 -i 0 -a 0 -x {1.0 2.0 -1 ------- null}
r -t 0.1100032 -s 1 -d 2 -p tcp -e 40 -c 0 -i 0 -a 0 -x {1.0 2.0 0 ------- null}
+ -t 0.1100032 -s 2 -d 1 -p ack -e 40 -c 0 -i 1 -a 0 -x {2.0 1.0 0 ------- null}
- -t 0.1100032 -s 2 -d 1 -p ack -e 40 -c 0 -i 1 -a 0 -x {2.0 1.0 0 ------- null}
h -t 0.1100032 -s 2 -d 1 -p ack -e 40 -c 0 -i 1 -a 0 -x {2.0 1.0 -1 ------- null}
r -t 0.1200064 -s 2 -d 1 -p ack -e 40 -c 0 -i 1 -a 0 -x {2.0 1.0 0 ------- null}
+ -t 0.1200064 -s 1 -d 2 -p tcp -e 1040 -c 0 -i 2 -a 0 -x {1.0 2.0 1 ------- null}
- -t 0.1200064 -s 1 -d 2 -p tcp -e 1040 -c 0 -i 2 -a 0 -x {1.0 2.0 1 ------- null}
h -t 0.1200064 -s 1 -d 2 -p tcp -e 1040 -c 0 -i 2 -a 0 -x {1.0 2.0 -1 ------- null}
+ -t 0.1200064 -s 1 -d 2 -p tcp -e 1040 -c 0 -i 3 -a 0 -x {1.0 2.0 2 ------- null}
- -t 0.1200896 -s 1 -d 2 -p tcp -e 1040 -c 0 -i 3 -a 0 -x {1.0 2.0 2 ------- null}
h -t 0.1200896 -s 1 -d 2 -p tcp -e 1040 -c 0 -i 3 -a 0 -x {1.0 2.0 -1 ------- null}
r -t 0.1300896 -s 1 -d 2 -p tcp -e 1040 -c 0 -i 2 -a 0 -x {1.0 2.0 1 ------- null}
+ -t 0.1300896 -s 2 -d 1 -p ack -e 40 -c 0 -i 4 -a 0 -x {2.0 1.0 1 ------- null}
- -t 0.1300896 -s 2 -d 1 -p ack -e 40 -c 0 -i 4 -a 0 -x {2.0 1.0 1 ------- null}
h -t 0.1300896 -s 2 -d 1 -p ack -e 40 -c 0 -i 4 -a 0 -x {2.0 1.0 -1 ------- null}
r -t 0.1301728 -s 1 -d 2 -p tcp -e 1040 -c 0 -i 3 -a 0 -x {1.0 2.0 2 ------- null}
+ -t 0.1301728 -s 2 -d 1 -p ack -e 40 -c 0 -i 5 -a 0 -x {2.0 1.0 2 ------- null}
- -t 0.1301728 -s 2 -d 1 -p ack -e 40 -c 0 -i 5 -a 0 -x {2.0 1.0 2 ------- null}
h -t 0.1301728 -s 2 -d 1 -p ack -e 40 -c 0 -i 5 -a 0 -x {2.0 1.0 -1 ------- null}
r -t 0.1400928 -s 2 -d 1 -p ack -e 40 -c 0 -i 4 -a 0 -x {2.0 1.0 1 ------- null}
+ -t 0.1400928 -s 1 -d 2 -p tcp -e 1040 -c 0 -i 6 -a 0 -x {1.0 2.0 3 ------- null}
- -t 0.1400928 -s 1 -d 2 -p tcp -e 1040 -c 0 -i 6 -a 0 -x {1.0 2.0 3 ------- null}
h -t 0.1400928 -s 1 -d 2 -p tcp -e 1040 -c 0 -i 6 -a 0 -x {1.0 2.0 -1 ------- null}
+ -t 0.1400928 -s 1 -d 2 -p tcp -e 1040 -c 0 -i 7 -a 0 -x {1.0 2.0 4 ------- null}
r -t 0.140176 -s 2 -d 1 -p ack -e 40 -c 0 -i 5 -a 0 -x {2.0 1.0 2 ------- null}
+ -t 0.140176 -s 1 -d 2 -p tcp -e 1040 -c 0 -i 8 -a 0 -x {1.0 2.0 5 ------- null}
+ -t 0.140176 -s 1 -d 2 -p tcp -e 1040 -c 0 -i 9 -a 0 -x {1.0 2.0 6 ------- null}
- -t 0.140176 -s 1 -d 2 -p tcp -e 1040 -c 0 -i 7 -a 0 -x {1.0 2.0 4 ------- null}
h -t 0.140176 -s 1 -d 2 -p tcp -e 1040 -c 0 -i 7 -a 0 -x {1.0 2.0 -1 ------- null}
- -t 0.1402592 -s 1 -d 2 -p tcp -e 1040 -c 0 -i 8 -a 0 -x {1.0 2.0 5 ------- null}
h -t 0.1402592 -s 1 -d 2 -p tcp -e 1040 -c 0 -i 8 -a 0 -x {1.0 2.0 -1 ------- null}
- -t 0.1403424 -s 1 -d 2 -p tcp -e 1040 -c 0 -i 9 -a 0 -x {1.0 2.0 6 ------- null}
h -t 0.1403424 -s 1 -d 2 -p tcp -e 1040 -c 0 -i 9 -a 0 -x {1.0 2.0 -1 ------- null}
r -t 0.150176 -s 1 -d 2 -p tcp -e 1040 -c 0 -i 6 -a 0 -x {1.0 2.0 3 ------- null}
+ -t 0.150176 -s 2 -d 1 -p ack -e 40 -c 0 -i 10 -a 0 -x {2.0 1.0 3 ------- null}
- -t 0.150176 -s 2 -d 1 -p ack -e 40 -c 0 -i 10 -a 0 -x {2.0 1.0 3 ------- null}
h -t 0.150176 -s 2 -d 1 -p ack -e 40 -c 0 -i 10 -a 0 -x {2.0 1.0 -1 ------- null}
r -t 0.1502592 -s 1 -d 2 -p tcp -e 1040 -c 0 -i 7 -a 0 -x {1.0 2.0 4 ------- null}
+ -t 0.1502592 -s 2 -d 1 -p ack -e 40 -c 0 -i 11 -a 0 -x {2.0 1.0 4 ------- null}
- -t 0.1502592 -s 2 -d 1 -p ack -e 40 -c 0 -i 11 -a 0 -x {2.0 1.0 4 ------- null}
h -t 0.1502592 -s 2 -d 1 -p ack -e 40 -c 0 -i 11 -a 0 -x {2.0 1.0 -1 ------- null}
r -t 0.1503424 -s 1 -d 2 -p tcp -e 1040 -c 0 -i 8 -a 0 -x {1.0 2.0 5 ------- null}
+ -t 0.1503424 -s 2 -d 1 -p ack -e 40 -c 0 -i 12 -a 0 -x {2.0 1.0 5 ------- null}
- -t 0.1503424 -s 2 -d 1 -p ack -e 40 -c 0 -i 12 -a 0 -x {2.0 1.0 5 ------- null}
h -t 0.1503424 -s 2 -d 1 -p ack -e 40 -c 0 -i 12 -a 0 -x {2.0 1.0 -1 ------- null}
r -t 0.1504256 -s 1 -d 2 -p tcp -e 1040 -c 0 -i 9 -a 0 -x {1.0 2.0 6 ------- null}
+ -t 0.1504256 -s 2 -d 1 -p ack -e 40 -c 0 -i 13 -a 0 -x {2.0 1.0 6 ------- null}
- -t 0.1504256 -s 2 -d 1 -p ack -e 40 -c 0 -i 13 -a 0 -x {2.0 1.0 6 ------- null}
h -t 0.1504256 -s 2 -d 1 -p ack -e 40 -c 0 -i 13 -a 0 -x {2.0 1.0 -1 ------- null}
r -t 0.1601792 -s 2 -d 1 -p ack -e 40 -c 0 -i 10 -a 0 -x {2.0 1.0 3 ------- null}
+ -t 0.1601792 -s 1 -d 2 -p tcp -e 1040 -c 0 -i 14 -a 0 -x {1.0 2.0 7 ------- null}
- -t 0.1601792 -s 1 -d 2 -p tcp -e 1040 -c 0 -i 14 -a 0 -x {1.0 2.0 7 ------- null}
h -t 0.1601792 -s 1 -d 2 -p tcp -e 1040 -c 0 -i 14 -a 0 -x {1.0 2.0 -1 ------- null}
+ -t 0.1601792 -s 1 -d 2 -p tcp -e 1040 -c 0 -i 15 -a 0 -x {1.0 2.0 8 ------- null}
r -t 0.1602624 -s 2 -d 1 -p ack -e 40 -c 0 -i 11 -a 0 -x {2.0 1.0 4 ------- null}
+ -t 0.1602624 -s 1 -d 2 -p tcp -e 1040 -c 0 -i 16 -a 0 -x {1.0 2.0 9 ------- null}
+ -t 0.1602624 -s 1 -d 2 -p tcp -e 1040 -c 0 -i 17 -a 0 -x {1.0 2.0 10 ------- null}
- -t 0.1602624 -s 1 -d 2 -p tcp -e 1040 -c 0 -i 15 -a 0 -x {1.0 2.0 8 ------- null}
h -t 0.1602624 -s 1 -d 2 -p tcp -e 1040 -c 0 -i 15 -a 0 -x {1.0 2.0 -1 ------- null}
r -t 0.1603456 -s 2 -d 1 -p ack -e 40 -c 0 -i 12 -a 0 -x {2.0 1.0 5 ------- null}
+ -t 0.1603456 -s 1 -d 2 -p tcp -e 1040 -c 0 -i 18 -a 0 -x {1.0 2.0 11 ------- null}
+ -t 0.1603456 -s 1 -d 2 -p tcp -e 1040 -c 0 -i 19 -a 0 -x {1.0 2.0 12 ------- null}
- -t 0.1603456 -s 1 -d 2 -p tcp -e 1040 -c 0 -i 16 -a 0 -x {1.0 2.0 9 ------- null}
h -t 0.1603456 -s 1 -d 2 -p tcp -e 1040 -c 0 -i 16 -a 0 -x {1.0 2.0 -1 ------- null}
r -t 0.1604288 -s 2 -d 1 -p ack -e 40 -c 0 -i 13 -a 0 -x {2.0 1.0 6 ------- null}
+ -t 0.1604288 -s 1 -d 2 -p tcp -e 1040 -c 0 -i 20 -a 0 -x {1.0 2.0 13 ------- null}
+ -t 0.1604288 -s 1 -d 2 -p tcp -e 1040 -c 0 -i 21 -a 0 -x {1.0 2.0 14 ------- null}
- -t 0.1604288 -s 1 -d 2 -p tcp -e 1040 -c 0 -i 17 -a 0 -x {1.0 2.0 10 ------- null}
h -t 0.1604288 -s 1 -d 2 -p tcp -e 1040 -c 0 -i 17 -a 0 -x {1.0 2.0 -1 ------- null}
- -t 0.160512 -s 1 -d 2 -p tcp -e 1040 -c 0 -i 18 -a 0 -x {1.0 2.0 11 ------- null}
h -t 0.160512 -s 1 -d 2 -p tcp -e 1040 -c 0 -i 18 -a 0 -x {1.0 2.0 -1 ------- null}
- -t 0.1605952 -s 1 -d 2 -p tcp -e 1040 -c 0 -i 19 -a 0 -x {1.0 2.0 12 ------- null}
h -t 0.1605952 -s 1 -d 2 -p tcp -e 1040 -c 0 -i 19 -a 0 -x {1.0 2.0 -1 ------- null}
- -t 0.1606784 -s 1 -d 2 -p tcp -e 1040 -c 0 -i 20 -a 0 -x {1.0 2.0 13 ------- null}
h -t 0.1606784 -s 1 -d 2 -p tcp -e 1040 -c 0 -i 20 -a 0 -x {1.0 2.0 -1 ------- null}
- -t 0.1607616 -s 1 -d 2 -p tcp -e 1040 -c 0 -i 21 -a 0 -x {1.0 2.0 14 ------- null}
h -t 0.1607616 -s 1 -d 2 -p tcp -e 1040 -c 0 -i 21 -a 0 -x {1.0 2.0 -1 ------- null}
r -t 0.1702624 -s 1 -d 2 -p tcp -e 1040 -c 0 -i 14 -a 0 -x {1.0 2.0 7 ------- null}
+ -t 0.1702624 -s 2 -d 1 -p ack -e 40 -c 0 -i 22 -a 0 -x {2.0 1.0 7 ------- null}
- -t 0.1702624 -s 2 -d 1 -p ack -e 40 -c 0 -i 22 -a 0 -x {2.0 1.0 7 ------- null}
h -t 0.1702624 -s 2 -d 1 -p ack -e 40 -c 0 -i 22 -a 0 -x {2.0 1.0 -1 ------- null}
r -t 0.1703456 -s 1 -d 2 -p tcp -e 1040 -c 0 -i 15 -a 0 -x {1.0 2.0 8 ------- null}
+ -t 0.1703456 -s 2 -d 1 -p ack -e 40 -c 0 -i 23 -a 0 -x {2.0 1.0 8 ------- null}
- -t 0.1703456 -s 2 -d 1 -p ack -e 40 -c 0 -i 23 -a 0 -x {2.0 1.0 8 ------- null}
h -t 0.1703456 -s 2 -d 1 -p ack -e 40 -c 0 -i 23 -a 0 -x {2.0 1.0 -1 ------- null}
r -t 0.1704288 -s 1 -d 2 -p tcp -e 1040 -c 0 -i 16 -a 0 -x {1.0 2.0 9 ------- null}
+ -t 0.1704288 -s 2 -d 1 -p ack -e 40 -c 0 -i 24 -a 0 -x {2.0 1.0 9 ------- null}
- -t 0.1704288 -s 2 -d 1 -p ack -e 40 -c 0 -i 24 -a 0 -x {2.0 1.0 9 ------- null}
h -t 0.1704288 -s 2 -d 1 -p ack -e 40 -c 0 -i 24 -a 0 -x {2.0 1.0 -1 ------- null}
r -t 0.170512 -s 1 -d 2 -p tcp -e 1040 -c 0 -i 17 -a 0 -x {1.0 2.0 10 ------- null}
+ -t 0.170512 -s 2 -d 1 -p ack -e 40 -c 0 -i 25 -a 0 -x {2.0 1.0 10 ------- null}
- -t 0.170512 -s 2 -d 1 -p ack -e 40 -c 0 -i 25 -a 0 -x {2.0 1.0 10 ------- null}
h -t 0.170512 -s 2 -d 1 -p ack -e 40 -c 0 -i 25 -a 0 -x {2.0 1.0 -1 ------- null}
r -t 0.1705952 -s 1 -d 2 -p tcp -e 1040 -c 0 -i 18 -a 0 -x {1.0 2.0 11 ------- null}
+ -t 0.1705952 -s 2 -d 1 -p ack -e 40 -c 0 -i 26 -a 0 -x {2.0 1.0 11 ------- null}
- -t 0.1705952 -s 2 -d 1 -p ack -e 40 -c 0 -i 26 -a 0 -x {2.0 1.0 11 ------- null}
h -t 0.1705952 -s 2 -d 1 -p ack -e 40 -c 0 -i 26 -a 0 -x {2.0 1.0 -1 ------- null}
r -t 0.1706784 -s 1 -d 2 -p tcp -e 1040 -c 0 -i 19 -a 0 -x {1.0 2.0 12 ------- null}
+ -t 0.1706784 -s 2 -d 1 -p ack -e 40 -c 0 -i 27 -a 0 -x {2.0 1.0 12 ------- null}
- -t 0.1706784 -s 2 -d 1 -p ack -e 40 -c 0 -i 27 -a 0 -x {2.0 1.0 12 ------- null}
h -t 0.1706784 -s 2 -d 1 -p ack -e 40 -c 0 -i 27 -a 0 -x {2.0 1.0 -1 ------- null}
r -t 0.1707616 -s 1 -d 2 -p tcp -e 1040 -c 0 -i 20 -a 0 -x {1.0 2.0 13 ------- null}
+ -t 0.1707616 -s 2 -d 1 -p ack -e 40 -c 0 -i 28 -a 0 -x {2.0 1.0 13 ------- null}
- -t 0.1707616 -s 2 -d 1 -p ack -e 40 -c 0 -i 28 -a 0 -x {2.0 1.0 13 ------- null}
h -t 0.1707616 -s 2 -d 1 -p ack -e 40 -c 0 -i 28 -a 0 -x {2.0 1.0 -1 ------- null}
r -t 0.1708448 -s 1 -d 2 -p tcp -e 1040 -c 0 -i 21 -a 0 -x {1.0 2.0 14 ------- null}
+ -t 0.1708448 -s 2 -d 1 -p ack -e 40 -c 0 -i 29 -a 0 -x {2.0 1.0 14 ------- null}
- -t 0.1708448 -s 2 -d 1 -p ack -e 40 -c 0 -i 29 -a 0 -x {2.0 1.0 14 ------- null}
h -t 0.1708448 -s 2 -d 1 -p ack -e 40 -c 0 -i 29 -a 0 -x {2.0 1.0 -1 ------- null}
r -t 0.1802656 -s 2 -d 1 -p ack -e 40 -c 0 -i 22 -a 0 -x {2.0 1.0 7 ------- null}
+ -t 0.1802656 -s 1 -d 2 -p tcp -e 1040 -c 0 -i 30 -a 0 -x {1.0 2.0 15 ------- null}
- -t 0.1802656 -s 1 -d 2 -p tcp -e 1040 -c 0 -i 30 -a 0 -x {1.0 2.0 15 ------- null}
h -t 0.1802656 -s 1 -d 2 -p tcp -e 1040 -c 0 -i 30 -a 0 -x {1.0 2.0 -1 ------- null}
+ -t 0.1802656 -s 1 -d 2 -p tcp -e 1040 -c 0 -i 31 -a 0 -x {1.0 2.0 16 ------- null}
r -t 0.1803488 -s 2 -d 1 -p ack -e 40 -c 0 -i 23 -a 0 -x {2.0 1.0 8 ------- null}
+ -t 0.1803488 -s 1 -d 2 -p tcp -e 1040 -c 0 -i 32 -a 0 -x {1.0 2.0 17 ------- null}
+ -t 0.1803488 -s 1 -d 2 -p tcp -e 1040 -c 0 -i 33 -a 0 -x {1.0 2.0 18 ------- null}
- -t 0.1803488 -s 1 -d 2 -p tcp -e 1040 -c 0 -i 31 -a 0 -x {1.0 2.0 16 ------- null}
h -t 0.1803488 -s 1 -d 2 -p tcp -e 1040 -c 0 -i 31 -a 0 -x {1.0 2.0 -1 ------- null}
r -t 0.180432 -s 2 -d 1 -p ack -e 40 -c 0 -i 24 -a 0 -x {2.0 1.0 9 ------- null}
+ -t 0.180432 -s 1 -d 2 -p tcp -e 1040 -c 0 -i 34 -a 0 -x {1.0 2.0 19 ------- null}
+ -t 0.180432 -s 1 -d 2 -p tcp -e 1040 -c 0 -i 35 -a 0 -x {1.0 2.0 20 ------- null}
- -t 0.180432 -s 1 -d 2 -p tcp -e 1040 -c 0 -i 32 -a 0 -x {1.0 2.0 17 ------- null}
h -t 0.180432 -s 1 -d 2 -p tcp -e 1040 -c 0 -i 32 -a 0 -x {1.0 2.0 -1 ------- null}
r -t 0.1805152 -s 2 -d 1 -p ack -e 40 -c 0 -i 25 -a 0 -x {2.0 1.0 10 ------- null}
+ -t 0.1805152 -s 1 -d 2 -p tcp -e 1040 -c 0 -i 36 -a 0 -x {1.0 2.0 21 ------- null}
+ -t 0.1805152 -s 1 -d 2 -p tcp -e 1040 -c 0 -i 37 -a 0 -x {1.0 2.0 22 ------- null}
- -t 0.1805152 -s 1 -d 2 -p tcp -e 1040 -c 0 -i 33 -a 0 -x {1.0 2.0 18 ------- null}
h -t 0.1805152 -s 1 -d 2 -p tcp -e 1040 -c 0 -i 33 -a 0 -x {1.0 2.0 -1 ------- null}
r -t 0.1805984 -s 2 -d 1 -p ack -e 40 -c 0 -i 26 -a 0 -x {2.0 1.0 11 ------- null}
- -t 0.1805984 -s 1 -d 2 -p tcp -e 1040 -c 0 -i 34 -a 0 -x {1.0 2.0 19 ------- null}
h -t 0.1805984 -s 1 -d 2 -p tcp -e 1040 -c 0 -i 34 -a 0 -x {1.0 2.0 -1 ------- null}
r -t 0.1806816 -s 2 -d 1 -p ack -e 40 -c 0 -i 27 -a 0 -x {2.0 1.0 12 ------- null}
- -t 0.1806816 -s 1 -d 2 -p tcp -e 1040 -c 0 -i 35 -a 0 -x {1.0 2.0 20 ------- null}
h -t 0.1806816 -s 1 -d 2 -p tcp -e 1040 -c 0 -i 35 -a 0 -x {1.0 2.0 -1 ------- null}
r -t 0.1807648 -s 2 -d 1 -p ack -e 40 -c 0 -i 28 -a 0 -x {2.0 1.0 13 ------- null}
- -t 0.1807648 -s 1 -d 2 -p tcp -e 1040 -c 0 -i 36 -a 0 -x {1.0 2.0 21 ------- null}
h -t 0.1807648 -s 1 -d 2 -p tcp -e 1040 -c 0 -i 36 -a 0 -x {1.0 2.0 -1 ------- null}
r -t 0.180848 -s 2 -d 1 -p ack -e 40 -c 0 -i 29 -a 0 -x {2.0 1.0 14 ------- null}
- -t 0.180848 -s 1 -d 2 -p tcp -e 1040 -c 0 -i 37 -a 0 -x {1.0 2.0 22 ------- null}
h -t 0.180848 -s 1 -d 2 -p tcp -e 1040 -c 0 -i 37 -a 0 -x {1.0 2.0 -1 ------- null}
+ -t 0.1825 -s 1 -d 2 -p tcp -e 1040 -c 0 -i 38 -a 0 -x {1.0 2.0 23 ------- null}
- -t 0.1825 -s 1 -d 2 -p tcp -e 1040 -c 0 -i 38 -a 0 -x {1.0 2.0 23 ------- null}
h -t 0.1825 -s 1 -d 2 -p tcp -e 1040 -c 0 -i 38 -a 0 -x {1.0 2.0 -1 ------- null}
+ -t 0.18625 -s 1 -d 2 -p tcp -e 1040 -c 0 -i 39 -a 0 -x {1.0 2.0 24 ------- null}
- -t 0.18625 -s 1 -d 2 -p tcp -e 1040 -c 0 -i 39 -a 0 -x {1.0 2.0 24 ------- null}
h -t 0.18625 -s 1 -d 2 -p tcp -e 1040 -c 0 -i 39 -a 0 -x {1.0 2.0 -1 ------- null}
+ -t 0.19 -s 1 -d 2 -p tcp -e 1040 -c 0 -i 40 -a 0 -x {1.0 2.0 25 ------- null}
- -t 0.19 -s 1 -d 2 -p tcp -e 1040 -c 0 -i 40 -a 0 -x {1.0 2.0 25 ------- null}
h -t 0.19 -s 1 -d 2 -p tcp -e 1040 -c 0 -i 40 -a 0 -x {1.0 2.0 -1 ------- null}
r -t 0.1903488 -s 1 -d 2 -p tcp -e 1040 -c 0 -i 30 -a 0 -x {1.0 2.0 15 ------- null}
+ -t 0.1903488 -s 2 -d 1 -p ack -e 40 -c 0 -i 41 -a 0 -x {2.0 1.0 15 ------- null}
- -t 0.1903488 -s 2 -d 1 -p ack -e 40 -c 0 -i 41 -a 0 -x {2.0 1.0 15 ------- null}
h -t 0.1903488 -s 2 -d 1 -p ack -e 40 -c 0 -i 41 -a 0 -x {2.0 1.0 -1 ------- null}
r -t 0.190432 -s 1 -d 2 -p tcp -e 1040 -c 0 -i 31 -a 0 -x {1.0 2.0 16 ------- null}
+ -t 0.190432 -s 2 -d 1 -p ack -e 40 -c 0 -i 42 -a 0 -x {2.0 1.0 16 ------- null}
- -t 0.190432 -s 2 -d 1 -p ack -e 40 -c 0 -i 42 -a 0 -x {2.0 1.0 16 ------- null}
h -t 0.190432 -s 2 -d 1 -p ack -e 40 -c 0 -i 42 -a 0 -x {2.0 1.0 -1 ------- null}
r -t 0.1905152 -s 1 -d 2 -p tcp -e 1040 -c 0 -i 32 -a 0 -x {1.0 2.0 17 ------- null}
+ -t 0.1905152 -s 2 -d 1 -p ack -e 40 -c 0 -i 43 -a 0 -x {2.0 1.0 17 ------- null}
- -t 0.1905152 -s 2 -d 1 -p ack -e 40 -c 0 -i 43 -a 0 -x {2.0 1.0 17 ------- null}
h -t 0.1905152 -s 2 -d 1 -p ack -e 40 -c 0 -i 43 -a 0 -x {2.0 1.0 -1 ------- null}
r -t 0.1905984 -s 1 -d 2 -p tcp -e 1040 -c 0 -i 33 -a 0 -x {1.0 2.0 18 ------- null}
+ -t 0.1905984 -s 2 -d 1 -p ack -e 40 -c 0 -i 44 -a 0 -x {2.0 1.0 18 ------- null}
- -t 0.1905984 -s 2 -d 1 -p ack -e 40 -c 0 -i 44 -a 0 -x {2.0 1.0 18 ------- null}
h -t 0.1905984 -s 2 -d 1 -p ack -e 40 -c 0 -i 44 -a 0 -x {2.0 1.0 -1 ------- null}
r -t 0.1906816 -s 1 -d 2 -p tcp -e 1040 -c 0 -i 34 -a 0 -x {1.0 2.0 19 ------- null}
+ -t 0.1906816 -s 2 -d 1 -p ack -e 40 -c 0 -i 45 -a 0 -x {2.0 1.0 19 ------- null}
- -t 0.1906816 -s 2 -d 1 -p ack -e 40 -c 0 -i 45 -a 0 -x {2.0 1.0 19 ------- null}
h -t 0.1906816 -s 2 -d 1 -p ack -e 40 -c 0 -i 45 -a 0 -x {2.0 1.0 -1 ------- null}
r -t 0.1907648 -s 1 -d 2 -p tcp -e 1040 -c 0 -i 35 -a 0 -x {1.0 2.0 20 ------- null}
+ -t 0.1907648 -s 2 -d 1 -p ack -e 40 -c 0 -i 46 -a 0 -x {2.0 1.0 20 ------- null}
- -t 0.1907648 -s 2 -d 1 -p ack -e 40 -c 0 -i 46 -a 0 -x {2.0 1.0 20 ------- null}
h -t 0.1907648 -s 2 -d 1 -p ack -e 40 -c 0 -i 46 -a 0 -x {2.0 1.0 -1 ------- null}
r -t 0.190848 -s 1 -d 2 -p tcp -e 1040 -c 0 -i 36 -a 0 -x {1.0 2.0 21 ------- null}
+ -t 0.190848 -s 2 -d 1 -p ack -e 40 -c 0 -i 47 -a 0 -x {2.0 1.0 21 ------- null}
- -t 0.190848 -s 2 -d 1 -p ack -e 40 -c 0 -i 47 -a 0 -x {2.0 1.0 21 ------- null}
h -t 0.190848 -s 2 -d 1 -p ack -e 40 -c 0 -i 47 -a 0 -x {2.0 1.0 -1 ------- null}
r -t 0.1909312 -s 1 -d 2 -p tcp -e 1040 -c 0 -i 37 -a 0 -x {1.0 2.0 22 ------- null}
+ -t 0.1909312 -s 2 -d 1 -p ack -e 40 -c 0 -i 48 -a 0 -x {2.0 1.0 22 ------- null}
- -t 0.1909312 -s 2 -d 1 -p ack -e 40 -c 0 -i 48 -a 0 -x {2.0 1.0 22 ------- null}
h -t 0.1909312 -s 2 -d 1 -p ack -e 40 -c 0 -i 48 -a 0 -x {2.0 1.0 -1 ------- null}
r -t 0.1925832 -s 1 -d 2 -p tcp -e 1040 -c 0 -i 38 -a 0 -x {1.0 2.0 23 ------- null}
+ -t 0.1925832 -s 2 -d 1 -p ack -e 40 -c 0 -i 49 -a 0 -x {2.0 1.0 23 ------- null}
- -t 0.1925832 -s 2 -d 1 -p ack -e 40 -c 0 -i 49 -a 0 -x {2.0 1.0 23 ------- null}
h -t 0.1925832 -s 2 -d 1 -p ack -e 40 -c 0 -i 49 -a 0 -x {2.0 1.0 -1 ------- null}
+ -t 0.19375 -s 1 -d 2 -p tcp -e 1040 -c 0 -i 50 -a 0 -x {1.0 2.0 26 ------- null}
- -t 0.19375 -s 1 -d 2 -p tcp -e 1040 -c 0 -i 50 -a 0 -x {1.0 2.0 26 ------- null}
h -t 0.19375 -s 1 -d 2 -p tcp -e 1040 -c 0 -i 50 -a 0 -x {1.0 2.0 -1 ------- null}
r -t 0.1963332 -s 1 -d 2 -p tcp -e 1040 -c 0 -i 39 -a 0 -x {1.0 2.0 24 ------- null}
+ -t 0.1963332 -s 2 -d 1 -p ack -e 40 -c 0 -i 51 -a 0 -x {2.0 1.0 24 ------- null}
- -t 0.1963332 -s 2 -d 1 -p ack -e 40 -c 0 -i 51 -a 0 -x {2.0 1.0 24 ------- null}
h -t 0.1963332 -s 2 -d 1 -p ack -e 40 -c 0 -i 51 -a 0 -x {2.0 1.0 -1 ------- null}
+ -t 0.1975 -s 1 -d 2 -p tcp -e 1040 -c 0 -i 52 -a 0 -x {1.0 2.0 27 ------- null}
- -t 0.1975 -s 1 -d 2 -p tcp -e 1040 -c 0 -i 52 -a 0 -x {1.0 2.0 27 ------- null}
h -t 0.1975 -s 1 -d 2 -p tcp -e 1040 -c 0 -i 52 -a 0 -x {1.0 2.0 -1 ------- null}
+ -t 0.2 -s 0 -d 2 -p tcp -e 40 -c 0 -i 53 -a 0 -x {0.0 2.0 0 ------- null}
- -t 0.2 -s 0 -d 2 -p tcp -e 40 -c 0 -i 53 -a 0 -x {0.0 2.0 0 ------- null}
h -t 0.2 -s 0 -d 2 -p tcp -e 40 -c 0 -i 53 -a 0 -x {0.0 2.0 -1 ------- null}
r -t 0.2000832 -s 1 -d 2 -p tcp -e 1040 -c 0 -i 40 -a 0 -x {1.0 2.0 25 ------- null}
+ -t 0.2000832 -s 2 -d 1 -p ack -e 40 -c 0 -i 54 -a 0 -x {2.0 1.0 25 ------- null}
- -t 0.2000832 -s 2 -d 1 -p ack -e 40 -c 0 -i 54 -a 0 -x {2.0 1.0 25 ------- null}
h -t 0.2000832 -s 2 -d 1 -p ack -e 40 -c 0 -i 54 -a 0 -x {2.0 1.0 -1 ------- null}
r -t 0.200352 -s 2 -d 1 -p ack -e 40 -c 0 -i 41 -a 0 -x {2.0 1.0 15 ------- null}
r -t 0.2004352 -s 2 -d 1 -p ack -e 40 -c 0 -i 42 -a 0 -x {2.0 1.0 16 ------- null}
r -t 0.2005184 -s 2 -d 1 -p ack -e 40 -c 0 -i 43 -a 0 -x {2.0 1.0 17 ------- null}
r -t 0.2006016 -s 2 -d 1 -p ack -e 40 -c 0 -i 44 -a 0 -x {2.0 1.0 18 ------- null}
r -t 0.2006848 -s 2 -d 1 -p ack -e 40 -c 0 -i 45 -a 0 -x {2.0 1.0 19 ------- null}
r -t 0.200768 -s 2 -d 1 -p ack -e 40 -c 0 -i 46 -a 0 -x {2.0 1.0 20 ------- null}
r -t 0.2008512 -s 2 -d 1 -p ack -e 40 -c 0 -i 47 -a 0 -x {2.0 1.0 21 ------- null}
r -t 0.2009344 -s 2 -d 1 -p ack -e 40 -c 0 -i 48 -a 0 -x {2.0 1.0 22 ------- null}
+ -t 0.20125 -s 1 -d 2 -p tcp -e 1040 -c 0 -i 55 -a 0 -x {1.0 2.0 28 ------- null}
- -t 0.20125 -s 1 -d 2 -p tcp -e 1040 -c 0 -i 55 -a 0 -x {1.0 2.0 28 ------- null}
h -t 0.20125 -s 1 -d 2 -p tcp -e 1040 -c 0 -i 55 -a 0 -x {1.0 2.0 -1 ------- null}
r -t 0.2025864 -s 2 -d 1 -p ack -e 40 -c 0 -i 49 -a 0 -x {2.0 1.0 23 ------- null}
r -t 0.2038332 -s 1 -d 2 -p tcp -e 1040 -c 0 -i 50 -a 0 -x {1.0 2.0 26 ------- null}
+ -t 0.2038332 -s 2 -d 1 -p ack -e 40 -c 0 -i 56 -a 0 -x {2.0 1.0 26 ------- null}
- -t 0.2038332 -s 2 -d 1 -p ack -e 40 -c 0 -i 56 -a 0 -x {2.0 1.0 26 ------- null}
h -t 0.2038332 -s 2 -d 1 -p ack -e 40 -c 0 -i 56 -a 0 -x {2.0 1.0 -1 ------- null}
+ -t 0.205 -s 1 -d 2 -p tcp -e 1040 -c 0 -i 57 -a 0 -x {1.0 2.0 29 ------- null}
- -t 0.205 -s 1 -d 2 -p tcp -e 1040 -c 0 -i 57 -a 0 -x {1.0 2.0 29 ------- null}
h -t 0.205 -s 1 -d 2 -p tcp -e 1040 -c 0 -i 57 -a 0 -x {1.0 2.0 -1 ------- null}
r -t 0.2063364 -s 2 -d 1 -p ack -e 40 -c 0 -i 51 -a 0 -x {2.0 1.0 24 ------- null}
r -t 0.2075832 -s 1 -d 2 -p tcp -e 1040 -c 0 -i 52 -a 0 -x {1.0 2.0 27 ------- null}
+ -t 0.2075832 -s 2 -d 1 -p ack -e 40 -c 0 -i 58 -a 0 -x {2.0 1.0 27 ------- null}
- -t 0.2075832 -s 2 -d 1 -p ack -e 40 -c 0 -i 58 -a 0 -x {2.0 1.0 27 ------- null}
h -t 0.2075832 -s 2 -d 1 -p ack -e 40 -c 0 -i 58 -a 0 -x {2.0 1.0 -1 ------- null}
+ -t 0.20875 -s 1 -d 2 -p tcp -e 1040 -c 0 -i 59 -a 0 -x {1.0 2.0 30 ------- null}
- -t 0.20875 -s 1 -d 2 -p tcp -e 1040 -c 0 -i 59 -a 0 -x {1.0 2.0 30 ------- null}
h -t 0.20875 -s 1 -d 2 -p tcp -e 1040 -c 0 -i 59 -a 0 -x {1.0 2.0 -1 ------- null}
r -t 0.2100032 -s 0 -d 2 -p tcp -e 40 -c 0 -i 53 -a 0 -x {0.0 2.0 0 ------- null}
+ -t 0.2100032 -s 2 -d 1 -p ack -e 40 -c 0 -i 60 -a 0 -x {2.0 1.0 27 ------- null}
- -t 0.2100032 -s 2 -d 1 -p ack -e 40 -c 0 -i 60 -a 0 -x {2.0 1.0 27 ------- null}
h -t 0.2100032 -s 2 -d 1 -p ack -e 40 -c 0 -i 60 -a 0 -x {2.0 1.0 -1 ------- null}
r -t 0.2100864 -s 2 -d 1 -p ack -e 40 -c 0 -i 54 -a 0 -x {2.0 1.0 25 ------- null}
r -t 0.2113332 -s 1 -d 2 -p tcp -e 1040 -c 0 -i 55 -a 0 -x {1.0 2.0 28 ------- null}
+ -t 0.2113332 -s 2 -d 1 -p ack -e 40 -c 0 -i 61 -a 0 -x {2.0 1.0 28 ------- null}
- -t 0.2113332 -s 2 -d 1 -p ack -e 40 -c 0 -i 61 -a 0 -x {2.0 1.0 28 ------- null}
h -t 0.2113332 -s 2 -d 1 -p ack -e 40 -c 0 -i 61 -a 0 -x {2.0 1.0 -1 ------- null}
+ -t 0.2125 -s 1 -d 2 -p tcp -e 1040 -c 0 -i 62 -a 0 -x {1.0 2.0 31 ------- null}
- -t 0.2125 -s 1 -d 2 -p tcp -e 1040 -c 0 -i 62 -a 0 -x {1.0 2.0 31 ------- null}
h -t 0.2125 -s 1 -d 2 -p tcp -e 1040 -c 0 -i 62 -a 0 -x {1.0 2.0 -1 ------- null}
r -t 0.2138364 -s 2 -d 1 -p ack -e 40 -c 0 -i 56 -a 0 -x {2.0 1.0 26 ------- null}
r -t 0.2150832 -s 1 -d 2 -p tcp -e 1040 -c 0 -i 57 -a 0 -x {1.0 2.0 29 ------- null}
+ -t 0.2150832 -s 2 -d 1 -p ack -e 40 -c 0 -i 63 -a 0 -x {2.0 1.0 29 ------- null}
- -t 0.2150832 -s 2 -d 1 -p ack -e 40 -c 0 -i 63 -a 0 -x {2.0 1.0 29 ------- null}
h -t 0.2150832 -s 2 -d 1 -p ack -e 40 -c 0 -i 63 -a 0 -x {2.0 1.0 -1 ------- null}
+ -t 0.21625 -s 1 -d 2 -p tcp -e 1040 -c 0 -i 64 -a 0 -x {1.0 2.0 32 ------- null}
- -t 0.21625 -s 1 -d 2 -p tcp -e 1040 -c 0 -i 64 -a 0 -x {1.0 2.0 32 ------- null}
h -t 0.21625 -s 1 -d 2 -p tcp -e 1040 -c 0 -i 64 -a 0 -x {1.0 2.0 -1 ------- null}
r -t 0.2175864 -s 2 -d 1 -p ack -e 40 -c 0 -i 58 -a 0 -x {2.0 1.0 27 ------- null}
r -t 0.2188332 -s 1 -d 2 -p tcp -e 1040 -c 0 -i 59 -a 0 -x {1.0 2.0 30 ------- null}
+ -t 0.2188332 -s 2 -d 1 -p ack -e 40 -c 0 -i 65 -a 0 -x {2.0 1.0 30 ------- null}
- -t 0.2188332 -s 2 -d 1 -p ack -e 40 -c 0 -i 65 -a 0 -x {2.0 1.0 30 ------- null}
h -t 0.2188332 -s 2 -d 1 -p ack -e 40 -c 0 -i 65 -a 0 -x {2.0 1.0 -1 ------- null}
+ -t 0.22 -s 1 -d 2 -p tcp -e 1040 -c 0 -i 66 -a 0 -x {1.0 2.0 33 ------- null}
- -t 0.22 -s 1 -d 2 -p tcp -e 1040 -c 0 -i 66 -a 0 -x {1.0 2.0 33 ------- null}
h -t 0.22 -s 1 -d 2 -p tcp -e 1040 -c 0 -i 66 -a 0 -x {1.0 2.0 -1 ------- null}
r -t 0.2200064 -s 2 -d 1 -p ack -e 40 -c 0 -i 60 -a 0 -x {2.0 1.0 27 ------- null}
r -t 0.2213364 -s 2 -d 1 -p ack -e 40 -c 0 -i 61 -a 0 -x {2.0 1.0 28 ------- null}
r -t 0.2225832 -s 1 -d 2 -p tcp -e 1040 -c 0 -i 62 -a 0 -x {1.0 2.0 31 ------- null}
+ -t 0.2225832 -s 2 -d 1 -p ack -e 40 -c 0 -i 67 -a 0 -x {2.0 1.0 31 ------- null}
- -t 0.2225832 -s 2 -d 1 -p ack -e 40 -c 0 -i 67 -a 0 -x {2.0 1.0 31 ------- null}
h -t 0.2225832 -s 2 -d 1 -p ack -e 40 -c 0 -i 67 -a 0 -x {2.0 1.0 -1 ------- null}
+ -t 0.22375 -s 1 -d 2 -p tcp -e 1040 -c 0 -i 68 -a 0 -x {1.0 2.0 34 ------- null}
- -t 0.22375 -s 1 -d 2 -p tcp -e 1040 -c 0 -i 68 -a 0 -x {1.0 2.0 34 ------- null}
h -t 0.22375 -s 1 -d 2 -p tcp -e 1040 -c 0 -i 68 -a 0 -x {1.0 2.0 -1 ------- null}
r -t 0.2250864 -s 2 -d 1 -p ack -e 40 -c 0 -i 63 -a 0 -x {2.0 1.0 29 ------- null}
r -t 0.2263332 -s 1 -d 2 -p tcp -e 1040 -c 0 -i 64 -a 0 -x {1.0 2.0 32 ------- null}
+ -t 0.2263332 -s 2 -d 1 -p ack -e 40 -c 0 -i 69 -a 0 -x {2.0 1.0 32 ------- null}
- -t 0.2263332 -s 2 -d 1 -p ack -e 40 -c 0 -i 69 -a 0 -x {2.0 1.0 32 ------- null}
h -t 0.2263332 -s 2 -d 1 -p ack -e 40 -c 0 -i 69 -a 0 -x {2.0 1.0 -1 ------- null}
+ -t 0.2275 -s 1 -d 2 -p tcp -e 1040 -c 0 -i 70 -a 0 -x {1.0 2.0 35 ------- null}
- -t 0.2275 -s 1 -d 2 -p tcp -e 1040 -c 0 -i 70 -a 0 -x {1.0 2.0 35 ------- null}
h -t 0.2275 -s 1 -d 2 -p tcp -e 1040 -c 0 -i 70 -a 0 -x {1.0 2.0 -1 ------- null}
r -t 0.2288364 -s 2 -d 1 -p ack -e 40 -c 0 -i 65 -a 0 -x {2.0 1.0 30 ------- null}
r -t 0.2300832 -s 1 -d 2 -p tcp -e 1040 -c 0 -i 66 -a 0 -x {1.0 2.0 33 ------- null}
+ -t 0.2300832 -s 2 -d 1 -p ack -e 40 -c 0 -i 71 -a 0 -x {2.0 1.0 33 ------- null}
- -t 0.2300832 -s 2 -d 1 -p ack -e 40 -c 0 -i 71 -a 0 -x {2.0 1.0 33 ------- null}
h -t 0.2300832 -s 2 -d 1 -p ack -e 40 -c 0 -i 71 -a 0 -x {2.0 1.0 -1 ------- null}
+ -t 0.23125 -s 1 -d 2 -p tcp -e 1040 -c 0 -i 72 -a 0 -x {1.0 2.0 36 ------- null}
- -t 0.23125 -s 1 -d 2 -p tcp -e 1040 -c 0 -i 72 -a 0 -x {1.0 2.0 36 ------- null}
h -t 0.23125 -s 1 -d 2 -p tcp -e 1040 -c 0 -i 72 -a 0 -x {1.0 2.0 -1 ------- null}
r -t 0.2325864 -s 2 -d 1 -p ack -e 40 -c 0 -i 67 -a 0 -x {2.0 1.0 31 ------- null}
r -t 0.2338332 -s 1 -d 2 -p tcp -e 1040 -c 0 -i 68 -a 0 -x {1.0 2.0 34 ------- null}
+ -t 0.2338332 -s 2 -d 1 -p ack -e 40 -c 0 -i 73 -a 0 -x {2.0 1.0 34 ------- null}
- -t 0.2338332 -s 2 -d 1 -p ack -e 40 -c 0 -i 73 -a 0 -x {2.0 1.0 34 ------- null}
h -t 0.2338332 -s 2 -d 1 -p ack -e 40 -c 0 -i 73 -a 0 -x {2.0 1.0 -1 ------- null}
+ -t 0.235 -s 1 -d 2 -p tcp -e 1040 -c 0 -i 74 -a 0 -x {1.0 2.0 37 ------- null}
- -t 0.235 -s 1 -d 2 -p tcp -e 1040 -c 0 -i 74 -a 0 -x {1.0 2.0 37 ------- null}
h -t 0.235 -s 1 -d 2 -p tcp -e 1040 -c 0 -i 74 -a 0 -x {1.0 2.0 -1 ------- null}
r -t 0.2363364 -s 2 -d 1 -p ack -e 40 -c 0 -i 69 -a 0 -x {2.0 1.0 32 ------- null}
r -t 0.2375832 -s 1 -d 2 -p tcp -e 1040 -c 0 -i 70 -a 0 -x {1.0 2.0 35 ------- null}
+ -t 0.2375832 -s 2 -d 1 -p ack -e 40 -c 0 -i 75 -a 0 -x {2.0 1.0 35 ------- null}
- -t 0.2375832 -s 2 -d 1 -p ack -e 40 -c 0 -i 75 -a 0 -x {2.0 1.0 35 ------- null}
h -t 0.2375832 -s 2 -d 1 -p ack -e 40 -c 0 -i 75 -a 0 -x {2.0 1.0 -1 ------- null}
+ -t 0.23875 -s 1 -d 2 -p tcp -e 1040 -c 0 -i 76 -a 0 -x {1.0 2.0 38 ------- null}
- -t 0.23875 -s 1 -d 2 -p tcp -e 1040 -c 0 -i 76 -a 0 -x {1.0 2.0 38 ------- null}
h -t 0.23875 -s 1 -d 2 -p tcp -e 1040 -c 0 -i 76 -a 0 -x {1.0 2.0 -1 ------- null}
r -t 0.2400864 -s 2 -d 1 -p ack -e 40 -c 0 -i 71 -a 0 -x {2.0 1.0 33 ------- null}
r -t 0.2413332 -s 1 -d 2 -p tcp -e 1040 -c 0 -i 72 -a 0 -x {1.0 2.0 36 ------- null}
+ -t 0.2413332 -s 2 -d 1 -p ack -e 40 -c 0 -i 77 -a 0 -x {2.0 1.0 36 ------- null}
- -t 0.2413332 -s 2 -d 1 -p ack -e 40 -c 0 -i 77 -a 0 -x {2.0 1.0 36 ------- null}
h -t 0.2413332 -s 2 -d 1 -p ack -e 40 -c 0 -i 77 -a 0 -x {2.0 1.0 -1 ------- null}
+ -t 0.2425 -s 1 -d 2 -p tcp -e 1040 -c 0 -i 78 -a 0 -x {1.0 2.0 39 ------- null}
- -t 0.2425 -s 1 -d 2 -p tcp -e 1040 -c 0 -i 78 -a 0 -x {1.0 2.0 39 ------- null}
h -t 0.2425 -s 1 -d 2 -p tcp -e 1040 -c 0 -i 78 -a 0 -x {1.0 2.0 -1 ------- null}
r -t 0.2438364 -s 2 -d 1 -p ack -e 40 -c 0 -i 73 -a 0 -x {2.0 1.0 34 ------- null}
r -t 0.2450832 -s 1 -d 2 -p tcp -e 1040 -c 0 -i 74 -a 0 -x {1.0 2.0 37 ------- null}
+ -t 0.2450832 -s 2 -d 1 -p ack -e 40 -c 0 -i 79 -a 0 -x {2.0 1.0 37 ------- null}
- -t 0.2450832 -s 2 -d 1 -p ack -e 40 -c 0 -i 79 -a 0 -x {2.0 1.0 37 ------- null}
h -t 0.2450832 -s 2 -d 1 -p ack -e 40 -c 0 -i 79 -a 0 -x {2.0 1.0 -1 ------- null}
+ -t 0.24625 -s 1 -d 2 -p tcp -e 1040 -c 0 -i 80 -a 0 -x {1.0 2.0 40 ------- null}
- -t 0.24625 -s 1 -d 2 -p tcp -e 1040 -c 0 -i 80 -a 0 -x {1.0 2.0 40 ------- null}
h -t 0.24625 -s 1 -d 2 -p tcp -e 1040 -c 0 -i 80 -a 0 -x {1.0 2.0 -1 ------- null}
r -t 0.2475864 -s 2 -d 1 -p ack -e 40 -c 0 -i 75 -a 0 -x {2.0 1.0 35 ------- null}
r -t 0.2488332 -s 1 -d 2 -p tcp -e 1040 -c 0 -i 76 -a 0 -x {1.0 2.0 38 ------- null}
+ -t 0.2488332 -s 2 -d 1 -p ack -e 40 -c 0 -i 81 -a 0 -x {2.0 1.0 38 ------- null}
- -t 0.2488332 -s 2 -d 1 -p ack -e 40 -c 0 -i 81 -a 0 -x {2.0 1.0 38 ------- null}
h -t 0.2488332 -s 2 -d 1 -p ack -e 40 -c 0 -i 81 -a 0 -x {2.0 1.0 -1 ------- null}
+ -t 0.25 -s 1 -d 2 -p tcp -e 1040 -c 0 -i 82 -a 0 -x {1.0 2.0 41 ------- null}
- -t 0.25 -s 1 -d 2 -p tcp -e 1040 -c 0 -i 82 -a 0 -x {1.0 2.0 41 ------- null}
h -t 0.25 -s 1 -d 2 -p tcp -e 1040 -c 0 -i 82 -a 0 -x {1.0 2.0 -1 ------- null}
r -t 0.2513364 -s 2 -d 1 -p ack -e 40 -c 0 -i 77 -a 0 -x {2.0 1.0 36 ------- null}
r -t 0.2525832 -s 1 -d 2 -p tcp -e 1040 -c 0 -i 78 -a 0 -x {1.0 2.0 39 ------- null}
+ -t 0.2525832 -s 2 -d 1 -p ack -e 40 -c 0 -i 83 -a 0 -x {2.0 1.0 39 ------- null}
- -t 0.2525832 -s 2 -d 1 -p ack -e 40 -c 0 -i 83 -a 0 -x {2.0 1.0 39 ------- null}
h -t 0.2525832 -s 2 -d 1 -p ack -e 40 -c 0 -i 83 -a 0 -x {2.0 1.0 -1 ------- null}
+ -t 0.25375 -s 1 -d 2 -p tcp -e 1040 -c 0 -i 84 -a 0 -x {1.0 2.0 42 ------- null}
- -t 0.25375 -s 1 -d 2 -p tcp -e 1040 -c 0 -i 84 -a 0 -x {1.0 2.0 42 ------- null}
h -t 0.25375 -s 1 -d 2 -p tcp -e 1040 -c 0 -i 84 -a 0 -x {1.0 2.0 -1 ------- null}
r -t 0.2550864 -s 2 -d 1 -p ack -e 40 -c 0 -i 79 -a 0 -x {2.0 1.0 37 ------- null}
r -t 0.2563332 -s 1 -d 2 -p tcp -e 1040 -c 0 -i 80 -a 0 -x {1.0 2.0 40 ------- null}
+ -t 0.2563332 -s 2 -d 1 -p ack -e 40 -c 0 -i 85 -a 0 -x {2.0 1.0 40 ------- null}
- -t 0.2563332 -s 2 -d 1 -p ack -e 40 -c 0 -i 85 -a 0 -x {2.0 1.0 40 ------- null}
h -t 0.2563332 -s 2 -d 1 -p ack -e 40 -c 0 -i 85 -a 0 -x {2.0 1.0 -1 ------- null}
+ -t 0.2575 -s 1 -d 2 -p tcp -e 1040 -c 0 -i 86 -a 0 -x {1.0 2.0 43 ------- null}
- -t 0.2575 -s 1 -d 2 -p tcp -e 1040 -c 0 -i 86 -a 0 -x {1.0 2.0 43 ------- null}
h -t 0.2575 -s 1 -d 2 -p tcp -e 1040 -c 0 -i 86 -a 0 -x {1.0 2.0 -1 ------- null}
r -t 0.2588364 -s 2 -d 1 -p ack -e 40 -c 0 -i 81 -a 0 -x {2.0 1.0 38 ------- null}
r -t 0.2600832 -s 1 -d 2 -p tcp -e 1040 -c 0 -i 82 -a 0 -x {1.0 2.0 41 ------- null}
+ -t 0.2600832 -s 2 -d 1 -p ack -e 40 -c 0 -i 87 -a 0 -x {2.0 1.0 41 ------- null}
- -t 0.2600832 -s 2 -d 1 -p ack -e 40 -c 0 -i 87 -a 0 -x {2.0 1.0 41 ------- null}
h -t 0.2600832 -s 2 -d 1 -p ack -e 40 -c 0 -i 87 -a 0 -x {2.0 1.0 -1 ------- null}
+ -t 0.26125 -s 1 -d 2 -p tcp -e 1040 -c 0 -i 88 -a 0 -x {1.0 2.0 44 ------- null}
- -t 0.26125 -s 1 -d 2 -p tcp -e 1040 -c 0 -i 88 -a 0 -x {1.0 2.0 44 ------- null}
h -t 0.26125 -s 1 -d 2 -p tcp -e 1040 -c 0 -i 88 -a 0 -x {1.0 2.0 -1 ------- null}
r -t 0.2625864 -s 2 -d 1 -p ack -e 40 -c 0 -i 83 -a 0 -x {2.0 1.0 39 ------- null}
r -t 0.2638332 -s 1 -d 2 -p tcp -e 1040 -c 0 -i 84 -a 0 -x {1.0 2.0 42 ------- null}
+ -t 0.2638332 -s 2 -d 1 -p ack -e 40 -c 0 -i 89 -a 0 -x {2.0 1.0 42 ------- null}
- -t 0.2638332 -s 2 -d 1 -p ack -e 40 -c 0 -i 89 -a 0 -x {2.0 1.0 42 ------- null}
h -t 0.2638332 -s 2 -d 1 -p ack -e 40 -c 0 -i 89 -a 0 -x {2.0 1.0 -1 ------- null}
+ -t 0.265 -s 1 -d 2 -p tcp -e 1040 -c 0 -i 90 -a 0 -x {1.0 2.0 45 ------- null}
- -t 0.265 -s 1 -d 2 -p tcp -e 1040 -c 0 -i 90 -a 0 -x {1.0 2.0 45 ------- null}