+ 0.1 1 2 tcp 40 ------- 0 1.0 3.1 0 0
- 0.1 1 2 tcp 40 ------- 0 1.0 3.1 0 0
+ 0.1 0 2 tcp 40 ------- 0 0.0 3.0 0 1
- 0.1 0 2 tcp 40 ------- 0 0.0 3.0 0 1
r 0.101032 1 2 tcp 40 ------- 0 1.0 3.1 0 0
+ 0.101032 2 3 tcp 40 ------- 0 1.0 3.1 0 0
- 0.101032 2 3 tcp 40 ------- 0 1.0 3.1 0 0
r 0.101032 0 2 tcp 40 ------- 0 0.0 3.0 0 1
+ 0.101032 2 3 tcp 40 ------- 0 0.0 3.0 0 1
- 0.101064 2 3 tcp 40 ------- 0 0.0 3.0 0 1
r 0.102064 2 3 tcp 40 ------- 0 1.0 3.1 0 0
+ 0.102064 3 2 ack 40 ------- 0 3.1 1.0 0 2
- 0.102064 3 2 ack 40 ------- 0 3.1 1.0 0 2
r 0.102096 2 3 tcp 40 ------- 0 0.0 3.0 0 1
+ 0.102096 3 2 ack 40 ------- 0 3.0 0.0 0 3
- 0.102096 3 2 ack 40 ------- 0 3.0 0.0 0 3
r 0.103096 3 2 ack 40 ------- 0 3.1 1.0 0 2
+ 0.103096 2 1 ack 40 ------- 0 3.1 1.0 0 2
- 0.103096 2 1 ack 40 ------- 0 3.1 1.0 0 2
r 0.103128 3 2 ack 40 ------- 0 3.0 0.0 0 3
+ 0.103128 2 0 ack 40 ------- 0 3.0 0.0 0 3
- 0.103128 2 0 ack 40 ------- 0 3.0 0.0 0 3
r 0.104128 2 1 ack 40 ------- 0 3.1 1.0 0 2
+ 0.104128 1 2 tcp 1040 ------- 0 1.0 3.1 1 4
- 0.104128 1 2 tcp 1040 ------- 0 1.0 3.1 1 4
+ 0.104128 1 2 tcp 1040 ------- 0 1.0 3.1 2 5
r 0.10416 2 0 ack 40 ------- 0 3.0 0.0 0 3
+ 0.10416 0 2 tcp 1040 ------- 0 0.0 3.0 1 6
- 0.10416 0 2 tcp 1040 ------- 0 0.0 3.0 1 6
+ 0.10416 0 2 tcp 1040 ------- 0 0.0 3.0 2 7
- 0.10496 1 2 tcp 1040 ------- 0 1.0 3.1 2 5
- 0.104992 0 2 tcp 1040 ------- 0 0.0 3.0 2 7
r 0.10596 1 2 tcp 1040 ------- 0 1.0 3.1 1 4
+ 0.10596 2 3 tcp 1040 ------- 0 1.0 3.1 1 4
- 0.10596 2 3 tcp 1040 ------- 0 1.0 3.1 1 4
r 0.105992 0 2 tcp 1040 ------- 0 0.0 3.0 1 6
+ 0.105992 2 3 tcp 1040 ------- 0 0.0 3.0 1 6
r 0.106792 1 2 tcp 1040 ------- 0 1.0 3.1 2 5
+ 0.106792 2 3 tcp 1040 ------- 0 1.0 3.1 2 5
- 0.106792 2 3 tcp 1040 ------- 0 0.0 3.0 1 6
r 0.106824 0 2 tcp 1040 ------- 0 0.0 3.0 2 7
+ 0.106824 2 3 tcp 1040 ------- 0 0.0 3.0 2 7
- 0.107624 2 3 tcp 1040 ------- 0 1.0 3.1 2 5
r 0.107792 2 3 tcp 1040 ------- 0 1.0 3.1 1 4
+ 0.107792 3 2 ack 40 ------- 0 3.1 1.0 1 8
- 0.107792 3 2 ack 40 ------- 0 3.1 1.0 1 8
- 0.108456 2 3 tcp 1040 ------- 0 0.0 3.0 2 7
r 0.108624 2 3 tcp 1040 ------- 0 0.0 3.0 1 6
+ 0.108624 3 2 ack 40 ------- 0 3.0 0.0 1 9
- 0.108624 3 2 ack 40 ------- 0 3.0 0.0 1 9
r 0.108824 3 2 ack 40 ------- 0 3.1 1.0 1 8
+ 0.108824 2 1 ack 40 ------- 0 3.1 1.0 1 8
- 0.108824 2 1 ack 40 ------- 0 3.1 1.0 1 8
r 0.109456 2 3 tcp 1040 ------- 0 1.0 3.1 2 5
+ 0.109456 3 2 ack 40 ------- 0 3.1 1.0 2 10
- 0.109456 3 2 ack 40 ------- 0 3.1 1.0 2 10
r 0.109656 3 2 ack 40 ------- 0 3.0 0.0 1 9
+ 0.109656 2 0 ack 40 ------- 0 3.0 0.0 1 9
- 0.109656 2 0 ack 40 ------- 0 3.0 0.0 1 9
r 0.109856 2 1 ack 40 ------- 0 3.1 1.0 1 8
+ 0.109856 1 2 tcp 1040 ------- 0 1.0 3.1 3 11
- 0.109856 1 2 tcp 1040 ------- 0 1.0 3.1 3 11
+ 0.109856 1 2 tcp 1040 ------- 0 1.0 3.1 4 12
r 0.110288 2 3 tcp 1040 ------- 0 0.0 3.0 2 7
+ 0.110288 3 2 ack 40 ------- 0 3.0 0.0 2 13
- 0.110288 3 2 ack 40 ------- 0 3.0 0.0 2 13
r 0.110488 3 2 ack 40 ------- 0 3.1 1.0 2 10
+ 0.110488 2 1 ack 40 ------- 0 3.1 1.0 2 10
- 0.110488 2 1 ack 40 ------- 0 3.1 1.0 2 10
r 0.110688 2 0 ack 40 ------- 0 3.0 0.0 1 9
+ 0.110688 0 2 tcp 1040 ------- 0 0.0 3.0 3 14
- 0.110688 0 2 tcp 1040 ------- 0 0.0 3.0 3 14
+ 0.110688 0 2 tcp 1040 ------- 0 0.0 3.0 4 15
- 0.110688 1 2 tcp 1040 ------- 0 1.0 3.1 4 12
r 0.11132 3 2 ack 40 ------- 0 3.0 0.0 2 13
+ 0.11132 2 0 ack 40 ------- 0 3.0 0.0 2 13
- 0.11132 2 0 ack 40 ------- 0 3.0 0.0 2 13
r 0.11152 2 1 ack 40 ------- 0 3.1 1.0 2 10
+ 0.11152 1 2 tcp 1040 ------- 0 1.0 3.1 5 16
+ 0.11152 1 2 tcp 1040 ------- 0 1.0 3.1 6 17
- 0.11152 0 2 tcp 1040 ------- 0 0.0 3.0 4 15
- 0.11152 1 2 tcp 1040 ------- 0 1.0 3.1 5 16
r 0.111688 1 2 tcp 1040 ------- 0 1.0 3.1 3 11
+ 0.111688 2 3 tcp 1040 ------- 0 1.0 3.1 3 11
- 0.111688 2 3 tcp 1040 ------- 0 1.0 3.1 3 11
r 0.112352 2 0 ack 40 ------- 0 3.0 0.0 2 13
+ 0.112352 0 2 tcp 1040 ------- 0 0.0 3.0 5 18
+ 0.112352 0 2 tcp 1040 ------- 0 0.0 3.0 6 19
- 0.112352 0 2 tcp 1040 ------- 0 0.0 3.0 5 18
- 0.112352 1 2 tcp 1040 ------- 0 1.0 3.1 6 17
r 0.11252 0 2 tcp 1040 ------- 0 0.0 3.0 3 14
+ 0.11252 2 3 tcp 1040 ------- 0 0.0 3.0 3 14
r 0.11252 1 2 tcp 1040 ------- 0 1.0 3.1 4 12
+ 0.11252 2 3 tcp 1040 ------- 0 1.0 3.1 4 12
- 0.11252 2 3 tcp 1040 ------- 0 0.0 3.0 3 14
- 0.113184 0 2 tcp 1040 ------- 0 0.0 3.0 6 19
r 0.113352 0 2 tcp 1040 ------- 0 0.0 3.0 4 15
+ 0.113352 2 3 tcp 1040 ------- 0 0.0 3.0 4 15
r 0.113352 1 2 tcp 1040 ------- 0 1.0 3.1 5 16
+ 0.113352 2 3 tcp 1040 ------- 0 1.0 3.1 5 16
- 0.113352 2 3 tcp 1040 ------- 0 1.0 3.1 4 12
r 0.11352 2 3 tcp 1040 ------- 0 1.0 3.1 3 11
+ 0.11352 3 2 ack 40 ------- 0 3.1 1.0 3 20
- 0.11352 3 2 ack 40 ------- 0 3.1 1.0 3 20
r 0.114184 0 2 tcp 1040 ------- 0 0.0 3.0 5 18
+ 0.114184 2 3 tcp 1040 ------- 0 0.0 3.0 5 18
r 0.114184 1 2 tcp 1040 ------- 0 1.0 3.1 6 17
+ 0.114184 2 3 tcp 1040 ------- 0 1.0 3.1 6 17
- 0.114184 2 3 tcp 1040 ------- 0 0.0 3.0 4 15
r 0.114352 2 3 tcp 1040 ------- 0 0.0 3.0 3 14
+ 0.114352 3 2 ack 40 ------- 0 3.0 0.0 3 21
- 0.114352 3 2 ack 40 ------- 0 3.0 0.0 3 21
r 0.114552 3 2 ack 40 ------- 0 3.1 1.0 3 20
+ 0.114552 2 1 ack 40 ------- 0 3.1 1.0 3 20
- 0.114552 2 1 ack 40 ------- 0 3.1 1.0 3 20
r 0.115016 0 2 tcp 1040 ------- 0 0.0 3.0 6 19
+ 0.115016 2 3 tcp 1040 ------- 0 0.0 3.0 6 19
- 0.115016 2 3 tcp 1040 ------- 0 1.0 3.1 5 16
r 0.115184 2 3 tcp 1040 ------- 0 1.0 3.1 4 12
+ 0.115184 3 2 ack 40 ------- 0 3.1 1.0 4 22
- 0.115184 3 2 ack 40 ------- 0 3.1 1.0 4 22
r 0.115384 3 2 ack 40 ------- 0 3.0 0.0 3 21
+ 0.115384 2 0 ack 40 ------- 0 3.0 0.0 3 21
- 0.115384 2 0 ack 40 ------- 0 3.0 0.0 3 21
r 0.115584 2 1 ack 40 ------- 0 3.1 1.0 3 20
+ 0.115584 1 2 tcp 1040 ------- 0 1.0 3.1 7 23
- 0.115584 1 2 tcp 1040 ------- 0 1.0 3.1 7 23
+ 0.115584 1 2 tcp 1040 ------- 0 1.0 3.1 8 24
- 0.115848 2 3 tcp 1040 ------- 0 0.0 3.0 5 18
r 0.116016 2 3 tcp 1040 ------- 0 0.0 3.0 4 15
+ 0.116016 3 2 ack 40 ------- 0 3.0 0.0 4 25
- 0.116016 3 2 ack 40 ------- 0 3.0 0.0 4 25
r 0.116216 3 2 ack 40 ------- 0 3.1 1.0 4 22
+ 0.116216 2 1 ack 40 ------- 0 3.1 1.0 4 22
- 0.116216 2 1 ack 40 ------- 0 3.1 1.0 4 22
r 0.116416 2 0 ack 40 ------- 0 3.0 0.0 3 21
+ 0.116416 0 2 tcp 1040 ------- 0 0.0 3.0 7 26
- 0.116416 0 2 tcp 1040 ------- 0 0.0 3.0 7 26
+ 0.116416 0 2 tcp 1040 ------- 0 0.0 3.0 8 27
- 0.116416 1 2 tcp 1040 ------- 0 1.0 3.1 8 24
- 0.11668 2 3 tcp 1040 ------- 0 1.0 3.1 6 17
r 0.116848 2 3 tcp 1040 ------- 0 1.0 3.1 5 16
+ 0.116848 3 2 ack 40 ------- 0 3.1 1.0 5 28
- 0.116848 3 2 ack 40 ------- 0 3.1 1.0 5 28
r 0.117048 3 2 ack 40 ------- 0 3.0 0.0 4 25
+ 0.117048 2 0 ack 40 ------- 0 3.0 0.0 4 25
- 0.117048 2 0 ack 40 ------- 0 3.0 0.0 4 25
r 0.117248 2 1 ack 40 ------- 0 3.1 1.0 4 22
+ 0.117248 1 2 tcp 1040 ------- 0 1.0 3.1 9 29
+ 0.117248 1 2 tcp 1040 ------- 0 1.0 3.1 10 30
- 0.117248 0 2 tcp 1040 ------- 0 0.0 3.0 8 27
- 0.117248 1 2 tcp 1040 ------- 0 1.0 3.1 9 29
r 0.117416 1 2 tcp 1040 ------- 0 1.0 3.1 7 23
+ 0.117416 2 3 tcp 1040 ------- 0 1.0 3.1 7 23
- 0.117512 2 3 tcp 1040 ------- 0 0.0 3.0 6 19
r 0.11768 2 3 tcp 1040 ------- 0 0.0 3.0 5 18
+ 0.11768 3 2 ack 40 ------- 0 3.0 0.0 5 31
- 0.11768 3 2 ack 40 ------- 0 3.0 0.0 5 31
r 0.11788 3 2 ack 40 ------- 0 3.1 1.0 5 28
+ 0.11788 2 1 ack 40 ------- 0 3.1 1.0 5 28
- 0.11788 2 1 ack 40 ------- 0 3.1 1.0 5 28
r 0.11808 2 0 ack 40 ------- 0 3.0 0.0 4 25
+ 0.11808 0 2 tcp 1040 ------- 0 0.0 3.0 9 32
+ 0.11808 0 2 tcp 1040 ------- 0 0.0 3.0 10 33
- 0.11808 0 2 tcp 1040 ------- 0 0.0 3.0 9 32
- 0.11808 1 2 tcp 1040 ------- 0 1.0 3.1 10 30
r 0.118248 0 2 tcp 1040 ------- 0 0.0 3.0 7 26
+ 0.118248 2 3 tcp 1040 ------- 0 0.0 3.0 7 26
r 0.118248 1 2 tcp 1040 ------- 0 1.0 3.1 8 24
+ 0.118248 2 3 tcp 1040 ------- 0 1.0 3.1 8 24
- 0.118344 2 3 tcp 1040 ------- 0 1.0 3.1 7 23
r 0.118512 2 3 tcp 1040 ------- 0 1.0 3.1 6 17
+ 0.118512 3 2 ack 40 ------- 0 3.1 1.0 6 34
- 0.118512 3 2 ack 40 ------- 0 3.1 1.0 6 34
r 0.118712 3 2 ack 40 ------- 0 3.0 0.0 5 31
+ 0.118712 2 0 ack 40 ------- 0 3.0 0.0 5 31
- 0.118712 2 0 ack 40 ------- 0 3.0 0.0 5 31
r 0.118912 2 1 ack 40 ------- 0 3.1 1.0 5 28
+ 0.118912 1 2 tcp 1040 ------- 0 1.0 3.1 11 35
+ 0.118912 1 2 tcp 1040 ------- 0 1.0 3.1 12 36
- 0.118912 0 2 tcp 1040 ------- 0 0.0 3.0 10 33
- 0.118912 1 2 tcp 1040 ------- 0 1.0 3.1 11 35
r 0.11908 0 2 tcp 1040 ------- 0 0.0 3.0 8 27
+ 0.11908 2 3 tcp 1040 ------- 0 0.0 3.0 8 27
r 0.11908 1 2 tcp 1040 ------- 0 1.0 3.1 9 29
+ 0.11908 2 3 tcp 1040 ------- 0 1.0 3.1 9 29
- 0.119176 2 3 tcp 1040 ------- 0 0.0 3.0 7 26
r 0.119344 2 3 tcp 1040 ------- 0 0.0 3.0 6 19
+ 0.119344 3 2 ack 40 ------- 0 3.0 0.0 6 37
- 0.119344 3 2 ack 40 ------- 0 3.0 0.0 6 37
r 0.119544 3 2 ack 40 ------- 0 3.1 1.0 6 34
+ 0.119544 2 1 ack 40 ------- 0 3.1 1.0 6 34
- 0.119544 2 1 ack 40 ------- 0 3.1 1.0 6 34
r 0.119744 2 0 ack 40 ------- 0 3.0 0.0 5 31
+ 0.119744 0 2 tcp 1040 ------- 0 0.0 3.0 11 38
+ 0.119744 0 2 tcp 1040 ------- 0 0.0 3.0 12 39
- 0.119744 0 2 tcp 1040 ------- 0 0.0 3.0 11 38
- 0.119744 1 2 tcp 1040 ------- 0 1.0 3.1 12 36
r 0.119912 0 2 tcp 1040 ------- 0 0.0 3.0 9 32
+ 0.119912 2 3 tcp 1040 ------- 0 0.0 3.0 9 32
r 0.119912 1 2 tcp 1040 ------- 0 1.0 3.1 10 30
+ 0.119912 2 3 tcp 1040 ------- 0 1.0 3.1 10 30
- 0.120008 2 3 tcp 1040 ------- 0 1.0 3.1 8 24
r 0.120176 2 3 tcp 1040 ------- 0 1.0 3.1 7 23
+ 0.120176 3 2 ack 40 ------- 0 3.1 1.0 7 40
- 0.120176 3 2 ack 40 ------- 0 3.1 1.0 7 40
r 0.120376 3 2 ack 40 ------- 0 3.0 0.0 6 37
+ 0.120376 2 0 ack 40 ------- 0 3.0 0.0 6 37
- 0.120376 2 0 ack 40 ------- 0 3.0 0.0 6 37
r 0.120576 2 1 ack 40 ------- 0 3.1 1.0 6 34
+ 0.120576 1 2 tcp 1040 ------- 0 1.0 3.1 13 41
+ 0.120576 1 2 tcp 1040 ------- 0 1.0 3.1 14 42
- 0.120576 0 2 tcp 1040 ------- 0 0.0 3.0 12 39
- 0.120576 1 2 tcp 1040 ------- 0 1.0 3.1 13 41
r 0.120744 0 2 tcp 1040 ------- 0 0.0 3.0 10 33
+ 0.120744 2 3 tcp 1040 ------- 0 0.0 3.0 10 33
r 0.120744 1 2 tcp 1040 ------- 0 1.0 3.1 11 35
+ 0.120744 2 3 tcp 1040 ------- 0 1.0 3.1 11 35
- 0.12084 2 3 tcp 1040 ------- 0 0.0 3.0 8 27
r 0.121008 2 3 tcp 1040 ------- 0 0.0 3.0 7 26
+ 0.121008 3 2 ack 40 ------- 0 3.0 0.0 7 43
- 0.121008 3 2 ack 40 ------- 0 3.0 0.0 7 43
r 0.121208 3 2 ack 40 ------- 0 3.1 1.0 7 40
+ 0.121208 2 1 ack 40 ------- 0 3.1 1.0 7 40
- 0.121208 2 1 ack 40 ------- 0 3.1 1.0 7 40
r 0.121408 2 0 ack 40 ------- 0 3.0 0.0 6 37
+ 0.121408 0 2 tcp 1040 ------- 0 0.0 3.0 13 44
+ 0.121408 0 2 tcp 1040 ------- 0 0.0 3.0 14 45
- 0.121408 0 2 tcp 1040 ------- 0 0.0 3.0 13 44
- 0.121408 1 2 tcp 1040 ------- 0 1.0 3.1 14 42
r 0.121576 0 2 tcp 1040 ------- 0 0.0 3.0 11 38
+ 0.121576 2 3 tcp 1040 ------- 0 0.0 3.0 11 38
r 0.121576 1 2 tcp 1040 ------- 0 1.0 3.1 12 36
+ 0.121576 2 3 tcp 1040 ------- 0 1.0 3.1 12 36
- 0.121672 2 3 tcp 1040 ------- 0 1.0 3.1 9 29
r 0.12184 2 3 tcp 1040 ------- 0 1.0 3.1 8 24
+ 0.12184 3 2 ack 40 ------- 0 3.1 1.0 8 46
- 0.12184 3 2 ack 40 ------- 0 3.1 1.0 8 46
r 0.12204 3 2 ack 40 ------- 0 3.0 0.0 7 43
+ 0.12204 2 0 ack 40 ------- 0 3.0 0.0 7 43
- 0.12204 2 0 ack 40 ------- 0 3.0 0.0 7 43
r 0.12224 2 1 ack 40 ------- 0 3.1 1.0 7 40
+ 0.12224 1 2 tcp 1040 ------- 0 1.0 3.1 15 47
+ 0.12224 1 2 tcp 1040 ------- 0 1.0 3.1 16 48
- 0.12224 0 2 tcp 1040 ------- 0 0.0 3.0 14 45
- 0.12224 1 2 tcp 1040 ------- 0 1.0 3.1 15 47
r 0.122408 0 2 tcp 1040 ------- 0 0.0 3.0 12 39
+ 0.122408 2 3 tcp 1040 ------- 0 0.0 3.0 12 39
r 0.122408 1 2 tcp 1040 ------- 0 1.0 3.1 13 41
+ 0.122408 2 3 tcp 1040 ------- 0 1.0 3.1 13 41
- 0.122504 2 3 tcp 1040 ------- 0 0.0 3.0 9 32
r 0.122672 2 3 tcp 1040 ------- 0 0.0 3.0 8 27
+ 0.122672 3 2 ack 40 ------- 0 3.0 0.0 8 49
- 0.122672 3 2 ack 40 ------- 0 3.0 0.0 8 49
r 0.122872 3 2 ack 40 ------- 0 3.1 1.0 8 46
+ 0.122872 2 1 ack 40 ------- 0 3.1 1.0 8 46
- 0.122872 2 1 ack 40 ------- 0 3.1 1.0 8 46
r 0.123072 2 0 ack 40 ------- 0 3.0 0.0 7 43
+ 0.123072 0 2 tcp 1040 ------- 0 0.0 3.0 15 50
+ 0.123072 0 2 tcp 1040 ------- 0 0.0 3.0 16 51
- 0.123072 0 2 tcp 1040 ------- 0 0.0 3.0 15 50
- 0.123072 1 2 tcp 1040 ------- 0 1.0 3.1 16 48
r 0.12324 0 2 tcp 1040 ------- 0 0.0 3.0 13 44
+ 0.12324 2 3 tcp 1040 ------- 0 0.0 3.0 13 44
r 0.12324 1 2 tcp 1040 ------- 0 1.0 3.1 14 42
+ 0.12324 2 3 tcp 1040 ------- 0 1.0 3.1 14 42
- 0.123336 2 3 tcp 1040 ------- 0 1.0 3.1 10 30
r 0.123504 2 3 tcp 1040 ------- 0 1.0 3.1 9 29
+ 0.123504 3 2 ack 40 ------- 0 3.1 1.0 9 52
- 0.123504 3 2 ack 40 ------- 0 3.1 1.0 9 52
r 0.123704 3 2 ack 40 ------- 0 3.0 0.0 8 49
+ 0.123704 2 0 ack 40 ------- 0 3.0 0.0 8 49
- 0.123704 2 0 ack 40 ------- 0 3.0 0.0 8 49
r 0.123904 2 1 ack 40 ------- 0 3.1 1.0 8 46
+ 0.123904 1 2 tcp 1040 ------- 0 1.0 3.1 17 53
+ 0.123904 1 2 tcp 1040 ------- 0 1.0 3.1 18 54
- 0.123904 0 2 tcp 1040 ------- 0 0.0 3.0 16 51
- 0.123904 1 2 tcp 1040 ------- 0 1.0 3.1 17 53
r 0.124072 0 2 tcp 1040 ------- 0 0.0 3.0 14 45
+ 0.124072 2 3 tcp 1040 ------- 0 0.0 3.0 14 45
r 0.124072 1 2 tcp 1040 ------- 0 1.0 3.1 15 47
+ 0.124072 2 3 tcp 1040 ------- 0 1.0 3.1 15 47
- 0.124168 2 3 tcp 1040 ------- 0 0.0 3.0 10 33
r 0.124336 2 3 tcp 1040 ------- 0 0.0 3.0 9 32
+ 0.124336 3 2 ack 40 ------- 0 3.0 0.0 9 55
- 0.124336 3 2 ack 40 ------- 0 3.0 0.0 9 55
r 0.124536 3 2 ack 40 ------- 0 3.1 1.0 9 52
+ 0.124536 2 1 ack 40 ------- 0 3.1 1.0 9 52
- 0.124536 2 1 ack 40 ------- 0 3.1 1.0 9 52
r 0.124736 2 0 ack 40 ------- 0 3.0 0.0 8 49
+ 0.124736 0 2 tcp 1040 ------- 0 0.0 3.0 17 56
+ 0.124736 0 2 tcp 1040 ------- 0 0.0 3.0 18 57
- 0.124736 0 2 tcp 1040 ------- 0 0.0 3.0 17 56
- 0.124736 1 2 tcp 1040 ------- 0 1.0 3.1 18 54
r 0.124904 0 2 tcp 1040 ------- 0 0.0 3.0 15 50
+ 0.124904 2 3 tcp 1040 ------- 0 0.0 3.0 15 50
r 0.124904 1 2 tcp 1040 ------- 0 1.0 3.1 16 48
+ 0.124904 2 3 tcp 1040 ------- 0 1.0 3.1 16 48
- 0.125 2 3 tcp 1040 ------- 0 1.0 3.1 11 35
r 0.125168 2 3 tcp 1040 ------- 0 1.0 3.1 10 30
+ 0.125168 3 2 ack 40 ------- 0 3.1 1.0 10 58
- 0.125168 3 2 ack 40 ------- 0 3.1 1.0 10 58
r 0.125368 3 2 ack 40 ------- 0 3.0 0.0 9 55
+ 0.125368 2 0 ack 40 ------- 0 3.0 0.0 9 55
- 0.125368 2 0 ack 40 ------- 0 3.0 0.0 9 55
r 0.125568 2 1 ack 40 ------- 0 3.1 1.0 9 52
+ 0.125568 1 2 tcp 1040 ------- 0 1.0 3.1 19 59
+ 0.125568 1 2 tcp 1040 ------- 0 1.0 3.1 20 60
- 0.125568 0 2 tcp 1040 ------- 0 0.0 3.0 18 57
- 0.125568 1 2 tcp 1040 ------- 0 1.0 3.1 19 59
r 0.125736 0 2 tcp 1040 ------- 0 0.0 3.0 16 51
+ 0.125736 2 3 tcp 1040 ------- 0 0.0 3.0 16 51
r 0.125736 1 2 tcp 1040 ------- 0 1.0 3.1 17 53
+ 0.125736 2 3 tcp 1040 ------- 0 1.0 3.1 17 53
- 0.125832 2 3 tcp 1040 ------- 0 0.0 3.0 11 38
r 0.126 2 3 tcp 1040 ------- 0 0.0 3.0 10 33
+ 0.126 3 2 ack 40 ------- 0 3.0 0.0 10 61
- 0.126 3 2 ack 40 ------- 0 3.0 0.0 10 61
r 0.1262 3 2 ack 40 ------- 0 3.1 1.0 10 58
+ 0.1262 2 1 ack 40 ------- 0 3.1 1.0 10 58
- 0.1262 2 1 ack 40 ------- 0 3.1 1.0 10 58
r 0.1264 2 0 ack 40 ------- 0 3.0 0.0 9 55
+ 0.1264 0 2 tcp 1040 ------- 0 0.0 3.0 19 62
+ 0.1264 0 2 tcp 1040 ------- 0 0.0 3.0 20 63
- 0.1264 0 2 tcp 1040 ------- 0 0.0 3.0 19 62
- 0.1264 1 2 tcp 1040 ------- 0 1.0 3.1 20 60
r 0.126568 0 2 tcp 1040 ------- 0 0.0 3.0 17 56
+ 0.126568 2 3 tcp 1040 ------- 0 0.0 3.0 17 56
r 0.126568 1 2 tcp 1040 ------- 0 1.0 3.1 18 54
+ 0.126568 2 3 tcp 1040 ------- 0 1.0 3.1 18 54
- 0.126664 2 3 tcp 1040 ------- 0 1.0 3.1 12 36
r 0.126832 2 3 tcp 1040 ------- 0 1.0 3.1 11 35
+ 0.126832 3 2 ack 40 ------- 0 3.1 1.0 11 64
- 0.126832 3 2 ack 40 ------- 0 3.1 1.0 11 64
r 0.127032 3 2 ack 40 ------- 0 3.0 0.0 10 61
+ 0.127032 2 0 ack 40 ------- 0 3.0 0.0 10 61
- 0.127032 2 0 ack 40 ------- 0 3.0 0.0 10 61
r 0.127232 2 1 ack 40 ------- 0 3.1 1.0 10 58
+ 0.127232 1 2 tcp 1040 ------- 0 1.0 3.1 21 65
+ 0.127232 1 2 tcp 1040 ------- 0 1.0 3.1 22 66
- 0.127232 0 2 tcp 1040 ------- 0 0.0 3.0 20 63
- 0.127232 1 2 tcp 1040 ------- 0 1.0 3.1 21 65
r 0.1274 0 2 tcp 1040 ------- 0 0.0 3.0 18 57
+ 0.1274 2 3 tcp 1040 ------- 0 0.0 3.0 18 57
r 0.1274 1 2 tcp 1040 ------- 0 1.0 3.1 19 59
+ 0.1274 2 3 tcp 1040 ------- 0 1.0 3.1 19 59
- 0.127496 2 3 tcp 1040 ------- 0 0.0 3.0 12 39
r 0.127664 2 3 tcp 1040 ------- 0 0.0 3.0 11 38
+ 0.127664 3 2 ack 40 ------- 0 3.0 0.0 11 67
- 0.127664 3 2 ack 40 ------- 0 3.0 0.0 11 67
r 0.127864 3 2 ack 40 ------- 0 3.1 1.0 11 64
+ 0.127864 2 1 ack 40 ------- 0 3.1 1.0 11 64
- 0.127864 2 1 ack 40 ------- 0 3.1 1.0 11 64
r 0.128064 2 0 ack 40 ------- 0 3.0 0.0 10 61
+ 0.128064 0 2 tcp 1040 ------- 0 0.0 3.0 21 68
+ 0.128064 0 2 tcp 1040 ------- 0 0.0 3.0 22 69
- 0.128064 0 2 tcp 1040 ------- 0 0.0 3.0 21 68
- 0.128064 1 2 tcp 1040 ------- 0 1.0 3.1 22 66
r 0.128232 0 2 tcp 1040 ------- 0 0.0 3.0 19 62
+ 0.128232 2 3 tcp 1040 ------- 0 0.0 3.0 19 62
r 0.128232 1 2 tcp 1040 ------- 0 1.0 3.1 20 60
+ 0.128232 2 3 tcp 1040 ------- 0 1.0 3.1 20 60
- 0.128328 2 3 tcp 1040 ------- 0 1.0 3.1 13 41
r 0.128496 2 3 tcp 1040 ------- 0 1.0 3.1 12 36
+ 0.128496 3 2 ack 40 ------- 0 3.1 1.0 12 70
- 0.128496 3 2 ack 40 ------- 0 3.1 1.0 12 70
r 0.128696 3 2 ack 40 ------- 0 3.0 0.0 11 67
+ 0.128696 2 0 ack 40 ------- 0 3.0 0.0 11 67
- 0.128696 2 0 ack 40 ------- 0 3.0 0.0 11 67
r 0.128896 2 1 ack 40 ------- 0 3.1 1.0 11 64
+ 0.128896 1 2 tcp 1040 ------- 0 1.0 3.1 23 71
+ 0.128896 1 2 tcp 1040 ------- 0 1.0 3.1 24 72
- 0.128896 0 2 tcp 1040 ------- 0 0.0 3.0 22 69
- 0.128896 1 2 tcp 1040 ------- 0 1.0 3.1 23 71
r 0.129064 0 2 tcp 1040 ------- 0 0.0 3.0 20 63
+ 0.129064 2 3 tcp 1040 ------- 0 0.0 3.0 20 63
r 0.129064 1 2 tcp 1040 ------- 0 1.0 3.1 21 65
+ 0.129064 2 3 tcp 1040 ------- 0 1.0 3.1 21 65
- 0.12916 2 3 tcp 1040 ------- 0 0.0 3.0 13 44
r 0.129328 2 3 tcp 1040 ------- 0 0.0 3.0 12 39
+ 0.129328 3 2 ack 40 ------- 0 3.0 0.0 12 73
- 0.129328 3 2 ack 40 ------- 0 3.0 0.0 12 73
r 0.129528 3 2 ack 40 ------- 0 3.1 1.0 12 70
+ 0.129528 2 1 ack 40 ------- 0 3.1 1.0 12 70
- 0.129528 2 1 ack 40 ------- 0 3.1 1.0 12 70
r 0.129728 2 0 ack 40 ------- 0 3.0 0.0 11 67
+ 0.129728 0 2 tcp 1040 ------- 0 0.0 3.0 23 74
+ 0.129728 0 2 tcp 1040 ------- 0 0.0 3.0 24 75
- 0.129728 0 2 tcp 1040 ------- 0 0.0 3.0 23 74
- 0.129728 1 2 tcp 1040 ------- 0 1.0 3.1 24 72
r 0.129896 0 2 tcp 1040 ------- 0 0.0 3.0 21 68
+ 0.129896 2 3 tcp 1040 ------- 0 0.0 3.0 21 68
r 0.129896 1 2 tcp 1040 ------- 0 1.0 3.1 22 66
+ 0.129896 2 3 tcp 1040 ------- 0 1.0 3.1 22 66
- 0.129992 2 3 tcp 1040 ------- 0 1.0 3.1 14 42
r 0.13016 2 3 tcp 1040 ------- 0 1.0 3.1 13 41
+ 0.13016 3 2 ack 40 ------- 0 3.1 1.0 13 76
- 0.13016 3 2 ack 40 ------- 0 3.1 1.0 13 76
r 0.13036 3 2 ack 40 ------- 0 3.0 0.0 12 73
+ 0.13036 2 0 ack 40 ------- 0 3.0 0.0 12 73
- 0.13036 2 0 ack 40 ------- 0 3.0 0.0 12 73
r 0.13056 2 1 ack 40 ------- 0 3.1 1.0 12 70
+ 0.13056 1 2 tcp 1040 ------- 0 1.0 3.1 25 77
+ 0.13056 1 2 tcp 1040 ------- 0 1.0 3.1 26 78
- 0.13056 0 2 tcp 1040 ------- 0 0.0 3.0 24 75
- 0.13056 1 2 tcp 1040 ------- 0 1.0 3.1 25 77
r 0.130728 0 2 tcp 1040 ------- 0 0.0 3.0 22 69
+ 0.130728 2 3 tcp 1040 ------- 0 0.0 3.0 22 69
r 0.130728 1 2 tcp 1040 ------- 0 1.0 3.1 23 71
+ 0.130728 2 3 tcp 1040 ------- 0 1.0 3.1 23 71
- 0.130824 2 3 tcp 1040 ------- 0 0.0 3.0 14 45
r 0.130992 2 3 tcp 1040 ------- 0 0.0 3.0 13 44
+ 0.130992 3 2 ack 40 ------- 0 3.0 0.0 13 79
- 0.130992 3 2 ack 40 ------- 0 3.0 0.0 13 79
r 0.131192 3 2 ack 40 ------- 0 3.1 1.0 13 76
+ 0.131192 2 1 ack 40 ------- 0 3.1 1.0 13 76
- 0.131192 2 1 ack 40 ------- 0 3.1 1.0 13 76
r 0.131392 2 0 ack 40 ------- 0 3.0 0.0 12 73
+ 0.131392 0 2 tcp 1040 ------- 0 0.0 3.0 25 80
+ 0.131392 0 2 tcp 1040 ------- 0 0.0 3.0 26 81
- 0.131392 0 2 tcp 1040 ------- 0 0.0 3.0 25 80
- 0.131392 1 2 tcp 1040 ------- 0 1.0 3.1 26 78
r 0.13156 0 2 tcp 1040 ------- 0 0.0 3.0 23 74
+ 0.13156 2 3 tcp 1040 ------- 0 0.0 3.0 23 74
r 0.13156 1 2 tcp 1040 ------- 0 1.0 3.1 24 72
+ 0.13156 2 3 tcp 1040 ------- 0 1.0 3.1 24 72
- 0.131656 2 3 tcp 1040 ------- 0 1.0 3.1 15 47
r 0.131824 2 3 tcp 1040 ------- 0 1.0 3.1 14 42
+ 0.131824 3 2 ack 40 ------- 0 3.1 1.0 14 82
- 0.131824 3 2 ack 40 ------- 0 3.1 1.0 14 82
r 0.132024 3 2 ack 40 ------- 0 3.0 0.0 13 79
+ 0.132024 2 0 ack 40 ------- 0 3.0 0.0 13 79
- 0.132024 2 0 ack 40 ------- 0 3.0 0.0 13 79
r 0.132224 2 1 ack 40 ------- 0 3.1 1.0 13 76
+ 0.132224 1 2 tcp 1040 ------- 0 1.0 3.1 27 83
+ 0.132224 1 2 tcp 1040 ------- 0 1.0 3.1 28 84
- 0.132224 0 2 tcp 1040 ------- 0 0.0 3.0 26 81
- 0.132224 1 2 tcp 1040 ------- 0 1.0 3.1 27 83
r 0.132392 0 2 tcp 1040 ------- 0 0.0 3.0 24 75
+ 0.132392 2 3 tcp 1040 ------- 0 0.0 3.0 24 75
r 0.132392 1 2 tcp 1040 ------- 0 1.0 3.1 25 77
+ 0.132392 2 3 tcp 1040 ------- 0 1.0 3.1 25 77
- 0.132488 2 3 tcp 1040 ------- 0 0.0 3.0 15 50
r 0.132656 2 3 tcp 1040 ------- 0 0.0 3.0 14 45
+ 0.132656 3 2 ack 40 ------- 0 3.0 0.0 14 85
- 0.132656 3 2 ack 40 ------- 0 3.0 0.0 14 85
r 0.132856 3 2 ack 40 ------- 0 3.1 1.0 14 82
+ 0.132856 2 1 ack 40 ------- 0 3.1 1.0 14 82
- 0.132856 2 1 ack 40 ------- 0 3.1 1.0 14 82
r 0.133056 2 0 ack 40 ------- 0 3.0 0.0 13 79
+ 0.133056 0 2 tcp 1040 ------- 0 0.0 3.0 27 86
+ 0.133056 0 2 tcp 1040 ------- 0 0.0 3.0 28 87
- 0.133056 0 2 tcp 1040 ------- 0 0.0 3.0 27 86
- 0.133056 1 2 tcp 1040 ------- 0 1.0 3.1 28 84
r 0.133224 0 2 tcp 1040 ------- 0 0.0 3.0 25 80
+ 0.133224 2 3 tcp 1040 ------- 0 0.0 3.0 25 80
r 0.133224 1 2 tcp 1040 ------- 0 1.0 3.1 26 78
+ 0.133224 2 3 tcp 1040 ------- 0 1.0 3.1 26 78
- 0.13332 2 3 tcp 1040 ------- 0 1.0 3.1 16 48
r 0.133488 2 3 tcp 1040 ------- 0 1.0 3.1 15 47
+ 0.133488 3 2 ack 40 ------- 0 3.1 1.0 15 88
- 0.133488 3 2 ack 40 ------- 0 3.1 1.0 15 88
r 0.133688 3 2 ack 40 ------- 0 3.0 0.0 14 85
+ 0.133688 2 0 ack 40 ------- 0 3.0 0.0 14 85
- 0.133688 2 0 ack 40 ------- 0 3.0 0.0 14 85
r 0.133888 2 1 ack 40 ------- 0 3.1 1.0 14 82
+ 0.133888 1 2 tcp 1040 ------- 0 1.0 3.1 29 89
+ 0.133888 1 2 tcp 1040 ------- 0 1.0 3.1 30 90
- 0.133888 0 2 tcp 1040 ------- 0 0.0 3.0 28 87
- 0.133888 1 2 tcp 1040 ------- 0 1.0 3.1 29 89
r 0.134056 0 2 tcp 1040 ------- 0 0.0 3.0 26 81
+ 0.134056 2 3 tcp 1040 ------- 0 0.0 3.0 26 81
r 0.134056 1 2 tcp 1040 ------- 0 1.0 3.1 27 83
+ 0.134056 2 3 tcp 1040 ------- 0 1.0 3.1 27 83
- 0.134152 2 3 tcp 1040 ------- 0 0.0 3.0 16 51
r 0.13432 2 3 tcp 1040 ------- 0 0.0 3.0 15 50
+ 0.13432 3 2 ack 40 ------- 0 3.0 0.0 15 91
- 0.13432 3 2 ack 40 ------- 0 3.0 0.0 15 91
r 0.13452 3 2 ack 40 ------- 0 3.1 1.0 15 88
+ 0.13452 2 1 ack 40 ------- 0 3.1 1.0 15 88
- 0.13452 2 1 ack 40 ------- 0 3.1 1.0 15 88
r 0.13472 2 0 ack 40 ------- 0 3.0 0.0 14 85
+ 0.13472 0 2 tcp 1040 ------- 0 0.0 3.0 29 92
+ 0.13472 0 2 tcp 1040 ------- 0 0.0 3.0 30 93
- 0.13472 0 2 tcp 1040 ------- 0 0.0 3.0 29 92
- 0.13472 1 2 tcp 1040 ------- 0 1.0 3.1 30 90
r 0.134888 0 2 tcp 1040 ------- 0 0.0 3.0 27 86
+ 0.134888 2 3 tcp 1040 ------- 0 0.0 3.0 27 86
r 0.134888 1 2 tcp 1040 ------- 0 1.0 3.1 28 84
+ 0.134888 2 3 tcp 1040 ------- 0 1.0 3.1 28 84
- 0.134984 2 3 tcp 1040 ------- 0 1.0 3.1 17 53
r 0.135152 2 3 tcp 1040 ------- 0 1.0 3.1 16 48
+ 0.135152 3 2 ack 40 ------- 0 3.1 1.0 16 94
- 0.135152 3 2 ack 40 ------- 0 3.1 1.0 16 94
r 0.135352 3 2 ack 40 ------- 0 3.0 0.0 15 91
+ 0.135352 2 0 ack 40 ------- 0 3.0 0.0 15 91
- 0.135352 2 0 ack 40 ------- 0 3.0 0.0 15 91
r 0.135552 2 1 ack 40 ------- 0 3.1 1.0 15 88
+ 0.135552 1 2 tcp 1040 ------- 0 1.0 3.1 31 95
+ 0.135552 1 2 tcp 1040 ------- 0 1.0 3.1 32 96
- 0.135552 0 2 tcp 1040 ------- 0 0.0 3.0 30 93
- 0.135552 1 2 tcp 1040 ------- 0 1.0 3.1 31 95
r 0.13572 0 2 tcp 1040 ------- 0 0.0 3.0 28 87
+ 0.13572 2 3 tcp 1040 ------- 0 0.0 3.0 28 87
r 0.13572 1 2 tcp 1040 ------- 0 1.0 3.1 29 89
+ 0.13572 2 3 tcp 1040 ------- 0 1.0 3.1 29 89
- 0.135816 2 3 tcp 1040 ------- 0 0.0 3.0 17 56
r 0.135984 2 3 tcp 1040 ------- 0 0.0 3.0 16 51
+ 0.135984 3 2 ack 40 ------- 0 3.0 0.0 16 97
- 0.135984 3 2 ack 40 ------- 0 3.0 0.0 16 97
r 0.136184 3 2 ack 40 ------- 0 3.1 1.0 16 94
+ 0.136184 2 1 ack 40 ------- 0 3.1 1.0 16 94
- 0.136184 2 1 ack 40 ------- 0 3.1 1.0 16 94
r 0.136384 2 0 ack 40 ------- 0 3.0 0.0 15 91
+ 0.136384 0 2 tcp 1040 ------- 0 0.0 3.0 31 98
+ 0.136384 0 2 tcp 1040 ------- 0 0.0 3.0 32 99
- 0.136384 0 2 tcp 1040 ------- 0 0.0 3.0 31 98
- 0.136384 1 2 tcp 1040 ------- 0 1.0 3.1 32 96
r 0.136552 0 2 tcp 1040 ------- 0 0.0 3.0 29 92
+ 0.136552 2 3 tcp 1040 ------- 0 0.0 3.0 29 92
r 0.136552 1 2 tcp 1040 ------- 0 1.0 3.1 30 90
+ 0.136552 2 3 tcp 1040 ------- 0 1.0 3.1 30 90
- 0.136648 2 3 tcp 1040 ------- 0 1.0 3.1 18 54
r 0.136816 2 3 tcp 1040 ------- 0 1.0 3.1 17 53
+ 0.136816 3 2 ack 40 ------- 0 3.1 1.0 17 100
- 0.136816 3 2 ack 40 ------- 0 3.1 1.0 17 100
r 0.137016 3 2 ack 40 ------- 0 3.0 0.0 16 97
+ 0.137016 2 0 ack 40 ------- 0 3.0 0.0 16 97
- 0.137016 2 0 ack 40 ------- 0 3.0 0.0 16 97
r 0.137216 2 1 ack 40 ------- 0 3.1 1.0 16 94
+ 0.137216 1 2 tcp 1040 ------- 0 1.0 3.1 33 101
+ 0.137216 1 2 tcp 1040 ------- 0 1.0 3.1 34 102
- 0.137216 0 2 tcp 1040 ------- 0 0.0 3.0 32 99
- 0.137216 1 2 tcp 1040 ------- 0 1.0 3.1 33 101
r 0.137384 0 2 tcp 1040 ------- 0 0.0 3.0 30 93
+ 0.137384 2 3 tcp 1040 ------- 0 0.0 3.0 30 93
r 0.137384 1 2 tcp 1040 ------- 0 1.0 3.1 31 95
+ 0.137384 2 3 tcp 1040 ------- 0 1.0 3.1 31 95
- 0.13748 2 3 tcp 1040 ------- 0 0.0 3.0 18 57
r 0.137648 2 3 tcp 1040 ------- 0 0.0 3.0 17 56
+ 0.137648 3 2 ack 40 ------- 0 3.0 0.0 17 103
- 0.137648 3 2 ack 40 ------- 0 3.0 0.0 17 103
r 0.137848 3 2 ack 40 ------- 0 3.1 1.0 17 100
+ 0.137848 2 1 ack 40 ------- 0 3.1 1.0 17 100
- 0.137848 2 1 ack 40 ------- 0 3.1 1.0 17 100
r 0.138048 2 0 ack 40 ------- 0 3.0 0.0 16 97
+ 0.138048 0 2 tcp 1040 ------- 0 0.0 3.0 33 104
+ 0.138048 0 2 tcp 1040 ------- 0 0.0 3.0 34 105
- 0.138048 0 2 tcp 1040 ------- 0 0.0 3.0 33 104
- 0.138048 1 2 tcp 1040 ------- 0 1.0 3.1 34 102
r 0.138216 0 2 tcp 1040 ------- 0 0.0 3.0 31 98
+ 0.138216 2 3 tcp 1040 ------- 0 0.0 3.0 31 98
r 0.138216 1 2 tcp 1040 ------- 0 1.0 3.1 32 96
+ 0.138216 2 3 tcp 1040 ------- 0 1.0 3.1 32 96
- 0.138312 2 3 tcp 1040 ------- 0 1.0 3.1 19 59
r 0.13848 2 3 tcp 1040 ------- 0 1.0 3.1 18 54
+ 0.13848 3 2 ack 40 ------- 0 3.1 1.0 18 106
- 0.13848 3 2 ack 40 ------- 0 3.1 1.0 18 106
r 0.13868 3 2 ack 40 ------- 0 3.0 0.0 17 103
+ 0.13868 2 0 ack 40 ------- 0 3.0 0.0 17 103
- 0.13868 2 0 ack 40 ------- 0 3.0 0.0 17 103
r 0.13888 2 1 ack 40 ------- 0 3.1 1.0 17 100
+ 0.13888 1 2 tcp 1040 ------- 0 1.0 3.1 35 107
+ 0.13888 1 2 tcp 1040 ------- 0 1.0 3.1 36 108
- 0.13888 0 2 tcp 1040 ------- 0 0.0 3.0 34 105
- 0.13888 1 2 tcp 1040 ------- 0 1.0 3.1 35 107
r 0.139048 0 2 tcp 1040 ------- 0 0.0 3.0 32 99
+ 0.139048 2 3 tcp 1040 ------- 0 0.0 3.0 32 99
r 0.139048 1 2 tcp 1040 ------- 0 1.0 3.1 33 101
+ 0.139048 2 3 tcp 1040 ------- 0 1.0 3.1 33 101
- 0.139144 2 3 tcp 1040 ------- 0 0.0 3.0 19 62
r 0.139312 2 3 tcp 1040 ------- 0 0.0 3.0 18 57
+ 0.139312 3 2 ack 40 ------- 0 3.0 0.0 18 109
- 0.139312 3 2 ack 40 ------- 0 3.0 0.0 18 109
r 0.139512 3 2 ack 40 ------- 0 3.1 1.0 18 106
+ 0.139512 2 1 ack 40 ------- 0 3.1 1.0 18 106
- 0.139512 2 1 ack 40 ------- 0 3.1 1.0 18 106
r 0.139712 2 0 ack 40 ------- 0 3.0 0.0 17 103
+ 0.139712 0 2 tcp 1040 ------- 0 0.0 3.0 35 110
+ 0.139712 0 2 tcp 1040 ------- 0 0.0 3.0 36 111
- 0.139712 0 2 tcp 1040 ------- 0 0.0 3.0 35 110
- 0.139712 1 2 tcp 1040 ------- 0 1.0 3.1 36 108
r 0.13988 0 2 tcp 1040 ------- 0 0.0 3.0 33 104
+ 0.13988 2 3 tcp 1040 ------- 0 0.0 3.0 33 104
r 0.13988 1 2 tcp 1040 ------- 0 1.0 3.1 34 102
+ 0.13988 2 3 tcp 1040 ------- 0 1.0 3.1 34 102
- 0.139976 2 3 tcp 1040 ------- 0 1.0 3.1 20 60
r 0.140144 2 3 tcp 1040 ------- 0 1.0 3.1 19 59
+ 0.140144 3 2 ack 40 ------- 0 3.1 1.0 19 112
- 0.140144 3 2 ack 40 ------- 0 3.1 1.0 19 112
r 0.140344 3 2 ack 40 ------- 0 3.0 0.0 18 109
+ 0.140344 2 0 ack 40 ------- 0 3.0 0.0 18 109
- 0.140344 2 0 ack 40 ------- 0 3.0 0.0 18 109
r 0.140544 2 1 ack 40 ------- 0 3.1 1.0 18 106
+ 0.140544 1 2 tcp 1040 ------- 0 1.0 3.1 37 113
+ 0.140544 1 2 tcp 1040 ------- 0 1.0 3.1 38 114
- 0.140544 0 2 tcp 1040 ------- 0 0.0 3.0 36 111
- 0.140544 1 2 tcp 1040 ------- 0 1.0 3.1 37 113
r 0.140712 0 2 tcp 1040 ------- 0 0.0 3.0 34 105
+ 0.140712 2 3 tcp 1040 ------- 0 0.0 3.0 34 105
r 0.140712 1 2 tcp 1040 ------- 0 1.0 3.1 35 107
+ 0.140712 2 3 tcp 1040 ------- 0 1.0 3.1 35 107
- 0.140808 2 3 tcp 1040 ------- 0 0.0 3.0 20 63
r 0.140976 2 3 tcp 1040 ------- 0 0.0 3.0 19 62
+ 0.140976 3 2 ack 40 ------- 0 3.0 0.0 19 115
- 0.140976 3 2 ack 40 ------- 0 3.0 0.0 19 115
r 0.141176 3 2 ack 40 ------- 0 3.1 1.0 19 112
+ 0.141176 2 1 ack 40 ------- 0 3.1 1.0 19 112
- 0.141176 2 1 ack 40 ------- 0 3.1 1.0 19 112
r 0.141376 2 0 ack 40 ------- 0 3.0 0.0 18 109
+ 0.141376 0 2 tcp 1040 ------- 0 0.0 3.0 37 116
+ 0.141376 0 2 tcp 1040 ------- 0 0.0 3.0 38 117
- 0.141376 0 2 tcp 1040 ------- 0 0.0 3.0 37 116
- 0.141376 1 2 tcp 1040 ------- 0 1.0 3.1 38 114
r 0.141544 0 2 tcp 1040 ------- 0 0.0 3.0 35 110
+ 0.141544 2 3 tcp 1040 ------- 0 0.0 3.0 35 110
r 0.141544 1 2 tcp 1040 ------- 0 1.0 3.1 36 108
+ 0.141544 2 3 tcp 1040 ------- 0 1.0 3.1 36 108
- 0.14164 2 3 tcp 1040 ------- 0 1.0 3.1 21 65
r 0.141808 2 3 tcp 1040 ------- 0 1.0 3.1 20 60
+ 0.141808 3 2 ack 40 ------- 0 3.1 1.0 20 118
- 0.141808 3 2 ack 40 ------- 0 3.1 1.0 20 118
r 0.142008 3 2 ack 40 ------- 0 3.0 0.0 19 115
+ 0.142008 2 0 ack 40 ------- 0 3.0 0.0 19 115
- 0.142008 2 0 ack 40 ------- 0 3.0 0.0 19 115
r 0.142208 2 1 ack 40 ------- 0 3.1 1.0 19 112
+ 0.142208 1 2 tcp 1040 ------- 0 1.0 3.1 39 119
- 0.142208 0 2 tcp 1040 ------- 0 0.0 3.0 38 117
- 0.142208 1 2 tcp 1040 ------- 0 1.0 3.1 39 119
r 0.142376 0 2 tcp 1040 ------- 0 0.0 3.0 36 111
+ 0.142376 2 3 tcp 1040 ------- 0 0.0 3.0 36 111
r 0.142376 1 2 tcp 1040 ------- 0 1.0 3.1 37 113
+ 0.142376 2 3 tcp 1040 ------- 0 1.0 3.1 37 113
- 0.142472 2 3 tcp 1040 ------- 0 0.0 3.0 21 68
r 0.14264 2 3 tcp 1040 ------- 0 0.0 3.0 20 63
+ 0.14264 3 2 ack 40 ------- 0 3.0 0.0 20 120
- 0.14264 3 2 ack 40 ------- 0 3.0 0.0 20 120
r 0.14284 3 2 ack 40 ------- 0 3.1 1.0 20 118
+ 0.14284 2 1 ack 40 ------- 0 3.1 1.0 20 118
- 0.14284 2 1 ack 40 ------- 0 3.1 1.0 20 118
r 0.14304 2 0 ack 40 ------- 0 3.0 0.0 19 115
+ 0.14304 0 2 tcp 1040 ------- 0 0.0 3.0 39 121
- 0.14304 0 2 tcp 1040 ------- 0 0.0 3.0 39 121