+ 0.1 1 2 tcp 40 ------- 0 1.0 2.0 0 0
- 0.1 1 2 tcp 40 ------- 0 1.0 2.0 0 0
r 0.110003 1 2 tcp 40 ------- 0 1.0 2.0 0 0
+ 0.110003 2 1 ack 40 ------- 0 2.0 1.0 0 1
- 0.110003 2 1 ack 40 ------- 0 2.0 1.0 0 1
r 0.120006 2 1 ack 40 ------- 0 2.0 1.0 0 1
+ 0.120006 1 2 tcp 1040 ------- 0 1.0 2.0 1 2
- 0.120006 1 2 tcp 1040 ------- 0 1.0 2.0 1 2
+ 0.120006 1 2 tcp 1040 ------- 0 1.0 2.0 2 3
- 0.12009 1 2 tcp 1040 ------- 0 1.0 2.0 2 3
r 0.13009 1 2 tcp 1040 ------- 0 1.0 2.0 1 2
+ 0.13009 2 1 ack 40 ------- 0 2.0 1.0 1 4
- 0.13009 2 1 ack 40 ------- 0 2.0 1.0 1 4
r 0.130173 1 2 tcp 1040 ------- 0 1.0 2.0 2 3
+ 0.130173 2 1 ack 40 ------- 0 2.0 1.0 2 5
- 0.130173 2 1 ack 40 ------- 0 2.0 1.0 2 5
r 0.140093 2 1 ack 40 ------- 0 2.0 1.0 1 4
+ 0.140093 1 2 tcp 1040 ------- 0 1.0 2.0 3 6
- 0.140093 1 2 tcp 1040 ------- 0 1.0 2.0 3 6
+ 0.140093 1 2 tcp 1040 ------- 0 1.0 2.0 4 7
r 0.140176 2 1 ack 40 ------- 0 2.0 1.0 2 5
+ 0.140176 1 2 tcp 1040 ------- 0 1.0 2.0 5 8
+ 0.140176 1 2 tcp 1040 ------- 0 1.0 2.0 6 9
- 0.140176 1 2 tcp 1040 ------- 0 1.0 2.0 4 7
- 0.140259 1 2 tcp 1040 ------- 0 1.0 2.0 5 8
- 0.140342 1 2 tcp 1040 ------- 0 1.0 2.0 6 9
r 0.150176 1 2 tcp 1040 ------- 0 1.0 2.0 3 6
+ 0.150176 2 1 ack 40 ------- 0 2.0 1.0 3 10
- 0.150176 2 1 ack 40 ------- 0 2.0 1.0 3 10
r 0.150259 1 2 tcp 1040 ------- 0 1.0 2.0 4 7
+ 0.150259 2 1 ack 40 ------- 0 2.0 1.0 4 11
- 0.150259 2 1 ack 40 ------- 0 2.0 1.0 4 11
r 0.150342 1 2 tcp 1040 ------- 0 1.0 2.0 5 8
+ 0.150342 2 1 ack 40 ------- 0 2.0 1.0 5 12
- 0.150342 2 1 ack 40 ------- 0 2.0 1.0 5 12
r 0.150426 1 2 tcp 1040 ------- 0 1.0 2.0 6 9
+ 0.150426 2 1 ack 40 ------- 0 2.0 1.0 6 13
- 0.150426 2 1 ack 40 ------- 0 2.0 1.0 6 13
r 0.160179 2 1 ack 40 ------- 0 2.0 1.0 3 10
+ 0.160179 1 2 tcp 1040 ------- 0 1.0 2.0 7 14
- 0.160179 1 2 tcp 1040 ------- 0 1.0 2.0 7 14
+ 0.160179 1 2 tcp 1040 ------- 0 1.0 2.0 8 15
r 0.160262 2 1 ack 40 ------- 0 2.0 1.0 4 11
+ 0.160262 1 2 tcp 1040 ------- 0 1.0 2.0 9 16
+ 0.160262 1 2 tcp 1040 ------- 0 1.0 2.0 10 17
- 0.160262 1 2 tcp 1040 ------- 0 1.0 2.0 8 15
r 0.160346 2 1 ack 40 ------- 0 2.0 1.0 5 12
+ 0.160346 1 2 tcp 1040 ------- 0 1.0 2.0 11 18
+ 0.160346 1 2 tcp 1040 ------- 0 1.0 2.0 12 19
- 0.160346 1 2 tcp 1040 ------- 0 1.0 2.0 9 16
r 0.160429 2 1 ack 40 ------- 0 2.0 1.0 6 13
+ 0.160429 1 2 tcp 1040 ------- 0 1.0 2.0 13 20
+ 0.160429 1 2 tcp 1040 ------- 0 1.0 2.0 14 21
- 0.160429 1 2 tcp 1040 ------- 0 1.0 2.0 10 17
- 0.160512 1 2 tcp 1040 ------- 0 1.0 2.0 11 18
- 0.160595 1 2 tcp 1040 ------- 0 1.0 2.0 12 19
- 0.160678 1 2 tcp 1040 ------- 0 1.0 2.0 13 20
- 0.160762 1 2 tcp 1040 ------- 0 1.0 2.0 14 21
r 0.170262 1 2 tcp 1040 ------- 0 1.0 2.0 7 14
+ 0.170262 2 1 ack 40 ------- 0 2.0 1.0 7 22
- 0.170262 2 1 ack 40 ------- 0 2.0 1.0 7 22
r 0.170346 1 2 tcp 1040 ------- 0 1.0 2.0 8 15
+ 0.170346 2 1 ack 40 ------- 0 2.0 1.0 8 23
- 0.170346 2 1 ack 40 ------- 0 2.0 1.0 8 23
r 0.170429 1 2 tcp 1040 ------- 0 1.0 2.0 9 16
+ 0.170429 2 1 ack 40 ------- 0 2.0 1.0 9 24
- 0.170429 2 1 ack 40 ------- 0 2.0 1.0 9 24
r 0.170512 1 2 tcp 1040 ------- 0 1.0 2.0 10 17
+ 0.170512 2 1 ack 40 ------- 0 2.0 1.0 10 25
- 0.170512 2 1 ack 40 ------- 0 2.0 1.0 10 25
r 0.170595 1 2 tcp 1040 ------- 0 1.0 2.0 11 18
+ 0.170595 2 1 ack 40 ------- 0 2.0 1.0 11 26
- 0.170595 2 1 ack 40 ------- 0 2.0 1.0 11 26
r 0.170678 1 2 tcp 1040 ------- 0 1.0 2.0 12 19
+ 0.170678 2 1 ack 40 ------- 0 2.0 1.0 12 27
- 0.170678 2 1 ack 40 ------- 0 2.0 1.0 12 27
r 0.170762 1 2 tcp 1040 ------- 0 1.0 2.0 13 20
+ 0.170762 2 1 ack 40 ------- 0 2.0 1.0 13 28
- 0.170762 2 1 ack 40 ------- 0 2.0 1.0 13 28
r 0.170845 1 2 tcp 1040 ------- 0 1.0 2.0 14 21
+ 0.170845 2 1 ack 40 ------- 0 2.0 1.0 14 29
- 0.170845 2 1 ack 40 ------- 0 2.0 1.0 14 29
r 0.180266 2 1 ack 40 ------- 0 2.0 1.0 7 22
+ 0.180266 1 2 tcp 1040 ------- 0 1.0 2.0 15 30
- 0.180266 1 2 tcp 1040 ------- 0 1.0 2.0 15 30
+ 0.180266 1 2 tcp 1040 ------- 0 1.0 2.0 16 31
r 0.180349 2 1 ack 40 ------- 0 2.0 1.0 8 23
+ 0.180349 1 2 tcp 1040 ------- 0 1.0 2.0 17 32
+ 0.180349 1 2 tcp 1040 ------- 0 1.0 2.0 18 33
- 0.180349 1 2 tcp 1040 ------- 0 1.0 2.0 16 31
r 0.180432 2 1 ack 40 ------- 0 2.0 1.0 9 24
+ 0.180432 1 2 tcp 1040 ------- 0 1.0 2.0 19 34
+ 0.180432 1 2 tcp 1040 ------- 0 1.0 2.0 20 35
- 0.180432 1 2 tcp 1040 ------- 0 1.0 2.0 17 32
r 0.180515 2 1 ack 40 ------- 0 2.0 1.0 10 25
+ 0.180515 1 2 tcp 1040 ------- 0 1.0 2.0 21 36
+ 0.180515 1 2 tcp 1040 ------- 0 1.0 2.0 22 37
- 0.180515 1 2 tcp 1040 ------- 0 1.0 2.0 18 33
r 0.180598 2 1 ack 40 ------- 0 2.0 1.0 11 26
- 0.180598 1 2 tcp 1040 ------- 0 1.0 2.0 19 34
r 0.180682 2 1 ack 40 ------- 0 2.0 1.0 12 27
- 0.180682 1 2 tcp 1040 ------- 0 1.0 2.0 20 35
r 0.180765 2 1 ack 40 ------- 0 2.0 1.0 13 28
- 0.180765 1 2 tcp 1040 ------- 0 1.0 2.0 21 36
r 0.180848 2 1 ack 40 ------- 0 2.0 1.0 14 29
- 0.180848 1 2 tcp 1040 ------- 0 1.0 2.0 22 37
+ 0.1825 1 2 tcp 1040 ------- 0 1.0 2.0 23 38
- 0.1825 1 2 tcp 1040 ------- 0 1.0 2.0 23 38
+ 0.18625 1 2 tcp 1040 ------- 0 1.0 2.0 24 39
- 0.18625 1 2 tcp 1040 ------- 0 1.0 2.0 24 39
+ 0.19 1 2 tcp 1040 ------- 0 1.0 2.0 25 40
- 0.19 1 2 tcp 1040 ------- 0 1.0 2.0 25 40
r 0.190349 1 2 tcp 1040 ------- 0 1.0 2.0 15 30
+ 0.190349 2 1 ack 40 ------- 0 2.0 1.0 15 41
- 0.190349 2 1 ack 40 ------- 0 2.0 1.0 15 41
r 0.190432 1 2 tcp 1040 ------- 0 1.0 2.0 16 31
+ 0.190432 2 1 ack 40 ------- 0 2.0 1.0 16 42
- 0.190432 2 1 ack 40 ------- 0 2.0 1.0 16 42
r 0.190515 1 2 tcp 1040 ------- 0 1.0 2.0 17 32
+ 0.190515 2 1 ack 40 ------- 0 2.0 1.0 17 43
- 0.190515 2 1 ack 40 ------- 0 2.0 1.0 17 43
r 0.190598 1 2 tcp 1040 ------- 0 1.0 2.0 18 33
+ 0.190598 2 1 ack 40 ------- 0 2.0 1.0 18 44
- 0.190598 2 1 ack 40 ------- 0 2.0 1.0 18 44
r 0.190682 1 2 tcp 1040 ------- 0 1.0 2.0 19 34
+ 0.190682 2 1 ack 40 ------- 0 2.0 1.0 19 45
- 0.190682 2 1 ack 40 ------- 0 2.0 1.0 19 45
r 0.190765 1 2 tcp 1040 ------- 0 1.0 2.0 20 35
+ 0.190765 2 1 ack 40 ------- 0 2.0 1.0 20 46
- 0.190765 2 1 ack 40 ------- 0 2.0 1.0 20 46
r 0.190848 1 2 tcp 1040 ------- 0 1.0 2.0 21 36
+ 0.190848 2 1 ack 40 ------- 0 2.0 1.0 21 47
- 0.190848 2 1 ack 40 ------- 0 2.0 1.0 21 47
r 0.190931 1 2 tcp 1040 ------- 0 1.0 2.0 22 37
+ 0.190931 2 1 ack 40 ------- 0 2.0 1.0 22 48
- 0.190931 2 1 ack 40 ------- 0 2.0 1.0 22 48
r 0.192583 1 2 tcp 1040 ------- 0 1.0 2.0 23 38
+ 0.192583 2 1 ack 40 ------- 0 2.0 1.0 23 49
- 0.192583 2 1 ack 40 ------- 0 2.0 1.0 23 49
+ 0.19375 1 2 tcp 1040 ------- 0 1.0 2.0 26 50
- 0.19375 1 2 tcp 1040 ------- 0 1.0 2.0 26 50
r 0.196333 1 2 tcp 1040 ------- 0 1.0 2.0 24 39
+ 0.196333 2 1 ack 40 ------- 0 2.0 1.0 24 51
- 0.196333 2 1 ack 40 ------- 0 2.0 1.0 24 51
+ 0.1975 1 2 tcp 1040 ------- 0 1.0 2.0 27 52
- 0.1975 1 2 tcp 1040 ------- 0 1.0 2.0 27 52
+ 0.2 0 2 tcp 40 ------- 0 0.0 2.0 0 53
- 0.2 0 2 tcp 40 ------- 0 0.0 2.0 0 53
r 0.200083 1 2 tcp 1040 ------- 0 1.0 2.0 25 40
+ 0.200083 2 1 ack 40 ------- 0 2.0 1.0 25 54
- 0.200083 2 1 ack 40 ------- 0 2.0 1.0 25 54
r 0.200352 2 1 ack 40 ------- 0 2.0 1.0 15 41
r 0.200435 2 1 ack 40 ------- 0 2.0 1.0 16 42
r 0.200518 2 1 ack 40 ------- 0 2.0 1.0 17 43
r 0.200602 2 1 ack 40 ------- 0 2.0 1.0 18 44
r 0.200685 2 1 ack 40 ------- 0 2.0 1.0 19 45
r 0.200768 2 1 ack 40 ------- 0 2.0 1.0 20 46
r 0.200851 2 1 ack 40 ------- 0 2.0 1.0 21 47
r 0.200934 2 1 ack 40 ------- 0 2.0 1.0 22 48
+ 0.20125 1 2 tcp 1040 ------- 0 1.0 2.0 28 55
- 0.20125 1 2 tcp 1040 ------- 0 1.0 2.0 28 55
r 0.202586 2 1 ack 40 ------- 0 2.0 1.0 23 49
r 0.203833 1 2 tcp 1040 ------- 0 1.0 2.0 26 50
+ 0.203833 2 1 ack 40 ------- 0 2.0 1.0 26 56
- 0.203833 2 1 ack 40 ------- 0 2.0 1.0 26 56
+ 0.205 1 2 tcp 1040 ------- 0 1.0 2.0 29 57
- 0.205 1 2 tcp 1040 ------- 0 1.0 2.0 29 57
r 0.206336 2 1 ack 40 ------- 0 2.0 1.0 24 51
r 0.207583 1 2 tcp 1040 ------- 0 1.0 2.0 27 52
+ 0.207583 2 1 ack 40 ------- 0 2.0 1.0 27 58
- 0.207583 2 1 ack 40 ------- 0 2.0 1.0 27 58
+ 0.20875 1 2 tcp 1040 ------- 0 1.0 2.0 30 59
- 0.20875 1 2 tcp 1040 ------- 0 1.0 2.0 30 59
r 0.210003 0 2 tcp 40 ------- 0 0.0 2.0 0 53
+ 0.210003 2 1 ack 40 ------- 0 2.0 1.0 27 60
- 0.210003 2 1 ack 40 ------- 0 2.0 1.0 27 60
r 0.210086 2 1 ack 40 ------- 0 2.0 1.0 25 54
r 0.211333 1 2 tcp 1040 ------- 0 1.0 2.0 28 55
+ 0.211333 2 1 ack 40 ------- 0 2.0 1.0 28 61
- 0.211333 2 1 ack 40 ------- 0 2.0 1.0 28 61
+ 0.2125 1 2 tcp 1040 ------- 0 1.0 2.0 31 62
- 0.2125 1 2 tcp 1040 ------- 0 1.0 2.0 31 62
r 0.213836 2 1 ack 40 ------- 0 2.0 1.0 26 56
r 0.215083 1 2 tcp 1040 ------- 0 1.0 2.0 29 57
+ 0.215083 2 1 ack 40 ------- 0 2.0 1.0 29 63
- 0.215083 2 1 ack 40 ------- 0 2.0 1.0 29 63
+ 0.21625 1 2 tcp 1040 ------- 0 1.0 2.0 32 64
- 0.21625 1 2 tcp 1040 ------- 0 1.0 2.0 32 64
r 0.217586 2 1 ack 40 ------- 0 2.0 1.0 27 58
r 0.218833 1 2 tcp 1040 ------- 0 1.0 2.0 30 59
+ 0.218833 2 1 ack 40 ------- 0 2.0 1.0 30 65
- 0.218833 2 1 ack 40 ------- 0 2.0 1.0 30 65
+ 0.22 1 2 tcp 1040 ------- 0 1.0 2.0 33 66
- 0.22 1 2 tcp 1040 ------- 0 1.0 2.0 33 66
r 0.220006 2 1 ack 40 ------- 0 2.0 1.0 27 60
r 0.221336 2 1 ack 40 ------- 0 2.0 1.0 28 61
r 0.222583 1 2 tcp 1040 ------- 0 1.0 2.0 31 62
+ 0.222583 2 1 ack 40 ------- 0 2.0 1.0 31 67
- 0.222583 2 1 ack 40 ------- 0 2.0 1.0 31 67
+ 0.22375 1 2 tcp 1040 ------- 0 1.0 2.0 34 68
- 0.22375 1 2 tcp 1040 ------- 0 1.0 2.0 34 68
r 0.225086 2 1 ack 40 ------- 0 2.0 1.0 29 63
r 0.226333 1 2 tcp 1040 ------- 0 1.0 2.0 32 64
+ 0.226333 2 1 ack 40 ------- 0 2.0 1.0 32 69
- 0.226333 2 1 ack 40 ------- 0 2.0 1.0 32 69
+ 0.2275 1 2 tcp 1040 ------- 0 1.0 2.0 35 70
- 0.2275 1 2 tcp 1040 ------- 0 1.0 2.0 35 70
r 0.228836 2 1 ack 40 ------- 0 2.0 1.0 30 65
r 0.230083 1 2 tcp 1040 ------- 0 1.0 2.0 33 66
+ 0.230083 2 1 ack 40 ------- 0 2.0 1.0 33 71
- 0.230083 2 1 ack 40 ------- 0 2.0 1.0 33 71
+ 0.23125 1 2 tcp 1040 ------- 0 1.0 2.0 36 72
- 0.23125 1 2 tcp 1040 ------- 0 1.0 2.0 36 72
r 0.232586 2 1 ack 40 ------- 0 2.0 1.0 31 67
r 0.233833 1 2 tcp 1040 ------- 0 1.0 2.0 34 68
+ 0.233833 2 1 ack 40 ------- 0 2.0 1.0 34 73
- 0.233833 2 1 ack 40 ------- 0 2.0 1.0 34 73
+ 0.235 1 2 tcp 1040 ------- 0 1.0 2.0 37 74
- 0.235 1 2 tcp 1040 ------- 0 1.0 2.0 37 74
r 0.236336 2 1 ack 40 ------- 0 2.0 1.0 32 69
r 0.237583 1 2 tcp 1040 ------- 0 1.0 2.0 35 70
+ 0.237583 2 1 ack 40 ------- 0 2.0 1.0 35 75
- 0.237583 2 1 ack 40 ------- 0 2.0 1.0 35 75
+ 0.23875 1 2 tcp 1040 ------- 0 1.0 2.0 38 76
- 0.23875 1 2 tcp 1040 ------- 0 1.0 2.0 38 76
r 0.240086 2 1 ack 40 ------- 0 2.0 1.0 33 71
r 0.241333 1 2 tcp 1040 ------- 0 1.0 2.0 36 72
+ 0.241333 2 1 ack 40 ------- 0 2.0 1.0 36 77
- 0.241333 2 1 ack 40 ------- 0 2.0 1.0 36 77
+ 0.2425 1 2 tcp 1040 ------- 0 1.0 2.0 39 78
- 0.2425 1 2 tcp 1040 ------- 0 1.0 2.0 39 78
r 0.243836 2 1 ack 40 ------- 0 2.0 1.0 34 73
r 0.245083 1 2 tcp 1040 ------- 0 1.0 2.0 37 74
+ 0.245083 2 1 ack 40 ------- 0 2.0 1.0 37 79
- 0.245083 2 1 ack 40 ------- 0 2.0 1.0 37 79
+ 0.24625 1 2 tcp 1040 ------- 0 1.0 2.0 40 80
- 0.24625 1 2 tcp 1040 ------- 0 1.0 2.0 40 80
r 0.247586 2 1 ack 40 ------- 0 2.0 1.0 35 75
r 0.248833 1 2 tcp 1040 ------- 0 1.0 2.0 38 76
+ 0.248833 2 1 ack 40 ------- 0 2.0 1.0 38 81
- 0.248833 2 1 ack 40 ------- 0 2.0 1.0 38 81
+ 0.25 1 2 tcp 1040 ------- 0 1.0 2.0 41 82
- 0.25 1 2 tcp 1040 ------- 0 1.0 2.0 41 82
r 0.251336 2 1 ack 40 ------- 0 2.0 1.0 36 77
r 0.252583 1 2 tcp 1040 ------- 0 1.0 2.0 39 78
+ 0.252583 2 1 ack 40 ------- 0 2.0 1.0 39 83
- 0.252583 2 1 ack 40 ------- 0 2.0 1.0 39 83
+ 0.25375 1 2 tcp 1040 ------- 0 1.0 2.0 42 84
- 0.25375 1 2 tcp 1040 ------- 0 1.0 2.0 42 84
r 0.255086 2 1 ack 40 ------- 0 2.0 1.0 37 79
r 0.256333 1 2 tcp 1040 ------- 0 1.0 2.0 40 80
+ 0.256333 2 1 ack 40 ------- 0 2.0 1.0 40 85
- 0.256333 2 1 ack 40 ------- 0 2.0 1.0 40 85
+ 0.2575 1 2 tcp 1040 ------- 0 1.0 2.0 43 86
- 0.2575 1 2 tcp 1040 ------- 0 1.0 2.0 43 86
r 0.258836 2 1 ack 40 ------- 0 2.0 1.0 38 81
r 0.260083 1 2 tcp 1040 ------- 0 1.0 2.0 41 82
+ 0.260083 2 1 ack 40 ------- 0 2.0 1.0 41 87
- 0.260083 2 1 ack 40 ------- 0 2.0 1.0 41 87
+ 0.26125 1 2 tcp 1040 ------- 0 1.0 2.0 44 88
- 0.26125 1 2 tcp 1040 ------- 0 1.0 2.0 44 88
r 0.262586 2 1 ack 40 ------- 0 2.0 1.0 39 83
r 0.263833 1 2 tcp 1040 ------- 0 1.0 2.0 42 84
+ 0.263833 2 1 ack 40 ------- 0 2.0 1.0 42 89
- 0.263833 2 1 ack 40 ------- 0 2.0 1.0 42 89
+ 0.265 1 2 tcp 1040 ------- 0 1.0 2.0 45 90
- 0.265 1 2 tcp 1040 ------- 0 1.0 2.0 45 90
r 0.266336 2 1 ack 40 ------- 0 2.0 1.0 40 85
r 0.267583 1 2 tcp 1040 ------- 0 1.0 2.0 43 86
+ 0.267583 2 1 ack 40 ------- 0 2.0 1.0 43 91
- 0.267583 2 1 ack 40 ------- 0 2.0 1.0 43 91
+ 0.26875 1 2 tcp 1040 ------- 0 1.0 2.0 46 92
- 0.26875 1 2 tcp 1040 ------- 0 1.0 2.0 46 92
r 0.270086 2 1 ack 40 ------- 0 2.0 1.0 41 87
r 0.271333 1 2 tcp 1040 ------- 0 1.0 2.0 44 88
+ 0.271333 2 1 ack 40 ------- 0 2.0 1.0 44 93
- 0.271333 2 1 ack 40 ------- 0 2.0 1.0 44 93
+ 0.2725 1 2 tcp 1040 ------- 0 1.0 2.0 47 94
- 0.2725 1 2 tcp 1040 ------- 0 1.0 2.0 47 94
r 0.273836 2 1 ack 40 ------- 0 2.0 1.0 42 89
r 0.275083 1 2 tcp 1040 ------- 0 1.0 2.0 45 90
+ 0.275083 2 1 ack 40 ------- 0 2.0 1.0 45 95
- 0.275083 2 1 ack 40 ------- 0 2.0 1.0 45 95
+ 0.27625 1 2 tcp 1040 ------- 0 1.0 2.0 48 96
- 0.27625 1 2 tcp 1040 ------- 0 1.0 2.0 48 96
r 0.277586 2 1 ack 40 ------- 0 2.0 1.0 43 91
r 0.278833 1 2 tcp 1040 ------- 0 1.0 2.0 46 92
+ 0.278833 2 1 ack 40 ------- 0 2.0 1.0 46 97
- 0.278833 2 1 ack 40 ------- 0 2.0 1.0 46 97
+ 0.28 1 2 tcp 1040 ------- 0 1.0 2.0 49 98
- 0.28 1 2 tcp 1040 ------- 0 1.0 2.0 49 98
r 0.281336 2 1 ack 40 ------- 0 2.0 1.0 44 93
r 0.282583 1 2 tcp 1040 ------- 0 1.0 2.0 47 94
+ 0.282583 2 1 ack 40 ------- 0 2.0 1.0 47 99
- 0.282583 2 1 ack 40 ------- 0 2.0 1.0 47 99
+ 0.28375 1 2 tcp 1040 ------- 0 1.0 2.0 50 100
- 0.28375 1 2 tcp 1040 ------- 0 1.0 2.0 50 100
r 0.285086 2 1 ack 40 ------- 0 2.0 1.0 45 95
r 0.286333 1 2 tcp 1040 ------- 0 1.0 2.0 48 96
+ 0.286333 2 1 ack 40 ------- 0 2.0 1.0 48 101
- 0.286333 2 1 ack 40 ------- 0 2.0 1.0 48 101
+ 0.2875 1 2 tcp 1040 ------- 0 1.0 2.0 51 102
- 0.2875 1 2 tcp 1040 ------- 0 1.0 2.0 51 102
r 0.288836 2 1 ack 40 ------- 0 2.0 1.0 46 97
r 0.290083 1 2 tcp 1040 ------- 0 1.0 2.0 49 98
+ 0.290083 2 1 ack 40 ------- 0 2.0 1.0 49 103
- 0.290083 2 1 ack 40 ------- 0 2.0 1.0 49 103
+ 0.29125 1 2 tcp 1040 ------- 0 1.0 2.0 52 104
- 0.29125 1 2 tcp 1040 ------- 0 1.0 2.0 52 104
r 0.292586 2 1 ack 40 ------- 0 2.0 1.0 47 99
r 0.293833 1 2 tcp 1040 ------- 0 1.0 2.0 50 100
+ 0.293833 2 1 ack 40 ------- 0 2.0 1.0 50 105
- 0.293833 2 1 ack 40 ------- 0 2.0 1.0 50 105
+ 0.295 1 2 tcp 1040 ------- 0 1.0 2.0 53 106
- 0.295 1 2 tcp 1040 ------- 0 1.0 2.0 53 106
r 0.296336 2 1 ack 40 ------- 0 2.0 1.0 48 101
r 0.297583 1 2 tcp 1040 ------- 0 1.0 2.0 51 102
+ 0.297583 2 1 ack 40 ------- 0 2.0 1.0 51 107
- 0.297583 2 1 ack 40 ------- 0 2.0 1.0 51 107
+ 0.29875 1 2 tcp 1040 ------- 0 1.0 2.0 54 108
- 0.29875 1 2 tcp 1040 ------- 0 1.0 2.0 54 108
r 0.300086 2 1 ack 40 ------- 0 2.0 1.0 49 103
r 0.301333 1 2 tcp 1040 ------- 0 1.0 2.0 52 104
+ 0.301333 2 1 ack 40 ------- 0 2.0 1.0 52 109
- 0.301333 2 1 ack 40 ------- 0 2.0 1.0 52 109
+ 0.3025 1 2 tcp 1040 ------- 0 1.0 2.0 55 110
- 0.3025 1 2 tcp 1040 ------- 0 1.0 2.0 55 110
r 0.303836 2 1 ack 40 ------- 0 2.0 1.0 50 105
r 0.305083 1 2 tcp 1040 ------- 0 1.0 2.0 53 106
+ 0.305083 2 1 ack 40 ------- 0 2.0 1.0 53 111
- 0.305083 2 1 ack 40 ------- 0 2.0 1.0 53 111
+ 0.30625 1 2 tcp 1040 ------- 0 1.0 2.0 56 112
- 0.30625 1 2 tcp 1040 ------- 0 1.0 2.0 56 112
r 0.307586 2 1 ack 40 ------- 0 2.0 1.0 51 107
r 0.308833 1 2 tcp 1040 ------- 0 1.0 2.0 54 108
+ 0.308833 2 1 ack 40 ------- 0 2.0 1.0 54 113
- 0.308833 2 1 ack 40 ------- 0 2.0 1.0 54 113
+ 0.31 1 2 tcp 1040 ------- 0 1.0 2.0 57 114
- 0.31 1 2 tcp 1040 ------- 0 1.0 2.0 57 114
r 0.311336 2 1 ack 40 ------- 0 2.0 1.0 52 109
r 0.312583 1 2 tcp 1040 ------- 0 1.0 2.0 55 110
+ 0.312583 2 1 ack 40 ------- 0 2.0 1.0 55 115
- 0.312583 2 1 ack 40 ------- 0 2.0 1.0 55 115
+ 0.31375 1 2 tcp 1040 ------- 0 1.0 2.0 58 116
- 0.31375 1 2 tcp 1040 ------- 0 1.0 2.0 58 116
r 0.315086 2 1 ack 40 ------- 0 2.0 1.0 53 111
r 0.316333 1 2 tcp 1040 ------- 0 1.0 2.0 56 112
+ 0.316333 2 1 ack 40 ------- 0 2.0 1.0 56 117
- 0.316333 2 1 ack 40 ------- 0 2.0 1.0 56 117
+ 0.3175 1 2 tcp 1040 ------- 0 1.0 2.0 59 118
- 0.3175 1 2 tcp 1040 ------- 0 1.0 2.0 59 118
r 0.318836 2 1 ack 40 ------- 0 2.0 1.0 54 113
r 0.320083 1 2 tcp 1040 ------- 0 1.0 2.0 57 114
+ 0.320083 2 1 ack 40 ------- 0 2.0 1.0 57 119
- 0.320083 2 1 ack 40 ------- 0 2.0 1.0 57 119
+ 0.32125 1 2 tcp 1040 ------- 0 1.0 2.0 60 120
- 0.32125 1 2 tcp 1040 ------- 0 1.0 2.0 60 120
r 0.322586 2 1 ack 40 ------- 0 2.0 1.0 55 115
r 0.323833 1 2 tcp 1040 ------- 0 1.0 2.0 58 116
+ 0.323833 2 1 ack 40 ------- 0 2.0 1.0 58 121
- 0.323833 2 1 ack 40 ------- 0 2.0 1.0 58 121
+ 0.325 1 2 tcp 1040 ------- 0 1.0 2.0 61 122
- 0.325 1 2 tcp 1040 ------- 0 1.0 2.0 61 122
r 0.326336 2 1 ack 40 ------- 0 2.0 1.0 56 117
r 0.327583 1 2 tcp 1040 ------- 0 1.0 2.0 59 118
+ 0.327583 2 1 ack 40 ------- 0 2.0 1.0 59 123
- 0.327583 2 1 ack 40 ------- 0 2.0 1.0 59 123
+ 0.32875 1 2 tcp 1040 ------- 0 1.0 2.0 62 124
- 0.32875 1 2 tcp 1040 ------- 0 1.0 2.0 62 124
r 0.330086 2 1 ack 40 ------- 0 2.0 1.0 57 119
r 0.331333 1 2 tcp 1040 ------- 0 1.0 2.0 60 120
+ 0.331333 2 1 ack 40 ------- 0 2.0 1.0 60 125
- 0.331333 2 1 ack 40 ------- 0 2.0 1.0 60 125
+ 0.3325 1 2 tcp 1040 ------- 0 1.0 2.0 63 126
- 0.3325 1 2 tcp 1040 ------- 0 1.0 2.0 63 126
r 0.333836 2 1 ack 40 ------- 0 2.0 1.0 58 121
r 0.335083 1 2 tcp 1040 ------- 0 1.0 2.0 61 122
+ 0.335083 2 1 ack 40 ------- 0 2.0 1.0 61 127
- 0.335083 2 1 ack 40 ------- 0 2.0 1.0 61 127
+ 0.33625 1 2 tcp 1040 ------- 0 1.0 2.0 64 128
- 0.33625 1 2 tcp 1040 ------- 0 1.0 2.0 64 128
r 0.337586 2 1 ack 40 ------- 0 2.0 1.0 59 123
r 0.338833 1 2 tcp 1040 ------- 0 1.0 2.0 62 124
+ 0.338833 2 1 ack 40 ------- 0 2.0 1.0 62 129
- 0.338833 2 1 ack 40 ------- 0 2.0 1.0 62 129
+ 0.34 1 2 tcp 1040 ------- 0 1.0 2.0 65 130
- 0.34 1 2 tcp 1040 ------- 0 1.0 2.0 65 130
r 0.341336 2 1 ack 40 ------- 0 2.0 1.0 60 125
r 0.342583 1 2 tcp 1040 ------- 0 1.0 2.0 63 126
+ 0.342583 2 1 ack 40 ------- 0 2.0 1.0 63 131
- 0.342583 2 1 ack 40 ------- 0 2.0 1.0 63 131
+ 0.34375 1 2 tcp 1040 ------- 0 1.0 2.0 66 132
- 0.34375 1 2 tcp 1040 ------- 0 1.0 2.0 66 132
r 0.345086 2 1 ack 40 ------- 0 2.0 1.0 61 127
r 0.346333 1 2 tcp 1040 ------- 0 1.0 2.0 64 128
+ 0.346333 2 1 ack 40 ------- 0 2.0 1.0 64 133
- 0.346333 2 1 ack 40 ------- 0 2.0 1.0 64 133
+ 0.3475 1 2 tcp 1040 ------- 0 1.0 2.0 67 134
- 0.3475 1 2 tcp 1040 ------- 0 1.0 2.0 67 134
r 0.348836 2 1 ack 40 ------- 0 2.0 1.0 62 129
r 0.350083 1 2 tcp 1040 ------- 0 1.0 2.0 65 130
+ 0.350083 2 1 ack 40 ------- 0 2.0 1.0 65 135
- 0.350083 2 1 ack 40 ------- 0 2.0 1.0 65 135
+ 0.35125 1 2 tcp 1040 ------- 0 1.0 2.0 68 136
- 0.35125 1 2 tcp 1040 ------- 0 1.0 2.0 68 136
r 0.352586 2 1 ack 40 ------- 0 2.0 1.0 63 131
r 0.353833 1 2 tcp 1040 ------- 0 1.0 2.0 66 132
+ 0.353833 2 1 ack 40 ------- 0 2.0 1.0 66 137
- 0.353833 2 1 ack 40 ------- 0 2.0 1.0 66 137
+ 0.355 1 2 tcp 1040 ------- 0 1.0 2.0 69 138
- 0.355 1 2 tcp 1040 ------- 0 1.0 2.0 69 138
r 0.356336 2 1 ack 40 ------- 0 2.0 1.0 64 133
r 0.357583 1 2 tcp 1040 ------- 0 1.0 2.0 67 134
+ 0.357583 2 1 ack 40 ------- 0 2.0 1.0 67 139
- 0.357583 2 1 ack 40 ------- 0 2.0 1.0 67 139
+ 0.35875 1 2 tcp 1040 ------- 0 1.0 2.0 70 140
- 0.35875 1 2 tcp 1040 ------- 0 1.0 2.0 70 140
r 0.360086 2 1 ack 40 ------- 0 2.0 1.0 65 135
r 0.361333 1 2 tcp 1040 ------- 0 1.0 2.0 68 136
+ 0.361333 2 1 ack 40 ------- 0 2.0 1.0 68 141
- 0.361333 2 1 ack 40 ------- 0 2.0 1.0 68 141
+ 0.3625 1 2 tcp 1040 ------- 0 1.0 2.0 71 142
- 0.3625 1 2 tcp 1040 ------- 0 1.0 2.0 71 142
r 0.363836 2 1 ack 40 ------- 0 2.0 1.0 66 137
r 0.365083 1 2 tcp 1040 ------- 0 1.0 2.0 69 138
+ 0.365083 2 1 ack 40 ------- 0 2.0 1.0 69 143
- 0.365083 2 1 ack 40 ------- 0 2.0 1.0 69 143
+ 0.36625 1 2 tcp 1040 ------- 0 1.0 2.0 72 144
- 0.36625 1 2 tcp 1040 ------- 0 1.0 2.0 72 144
r 0.367586 2 1 ack 40 ------- 0 2.0 1.0 67 139
r 0.368833 1 2 tcp 1040 ------- 0 1.0 2.0 70 140
+ 0.368833 2 1 ack 40 ------- 0 2.0 1.0 70 145
- 0.368833 2 1 ack 40 ------- 0 2.0 1.0 70 145
+ 0.37 1 2 tcp 1040 ------- 0 1.0 2.0 73 146
- 0.37 1 2 tcp 1040 ------- 0 1.0 2.0 73 146
r 0.371336 2 1 ack 40 ------- 0 2.0 1.0 68 141
r 0.372583 1 2 tcp 1040 ------- 0 1.0 2.0 71 142
+ 0.372583 2 1 ack 40 ------- 0 2.0 1.0 71 147
- 0.372583 2 1 ack 40 ------- 0 2.0 1.0 71 147
+ 0.37375 1 2 tcp 1040 ------- 0 1.0 2.0 74 148
- 0.37375 1 2 tcp 1040 ------- 0 1.0 2.0 74 148
r 0.375086 2 1 ack 40 ------- 0 2.0 1.0 69 143
r 0.376333 1 2 tcp 1040 ------- 0 1.0 2.0 72 144
+ 0.376333 2 1 ack 40 ------- 0 2.0 1.0 72 149
- 0.376333 2 1 ack 40 ------- 0 2.0 1.0 72 149
+ 0.3775 1 2 tcp 1040 ------- 0 1.0 2.0 75 150
- 0.3775 1 2 tcp 1040 ------- 0 1.0 2.0 75 150
r 0.378836 2 1 ack 40 ------- 0 2.0 1.0 70 145
r 0.380083 1 2 tcp 1040 ------- 0 1.0 2.0 73 146
+ 0.380083 2 1 ack 40 ------- 0 2.0 1.0 73 151
- 0.380083 2 1 ack 40 ------- 0 2.0 1.0 73 151
+ 0.38125 1 2 tcp 1040 ------- 0 1.0 2.0 76 152
- 0.38125 1 2 tcp 1040 ------- 0 1.0 2.0 76 152
r 0.382586 2 1 ack 40 ------- 0 2.0 1.0 71 147
r 0.383833 1 2 tcp 1040 ------- 0 1.0 2.0 74 148
+ 0.383833 2 1 ack 40 ------- 0 2.0 1.0 74 153
- 0.383833 2 1 ack 40 ------- 0 2.0 1.0 74 153
+ 0.385 1 2 tcp 1040 ------- 0 1.0 2.0 77 154
- 0.385 1 2 tcp 1040 ------- 0 1.0 2.0 77 154
r 0.386336 2 1 ack 40 ------- 0 2.0 1.0 72 149
r 0.387583 1 2 tcp 1040 ------- 0 1.0 2.0 75 150
+ 0.387583 2 1 ack 40 ------- 0 2.0 1.0 75 155
- 0.387583 2 1 ack 40 ------- 0 2.0 1.0 75 155
+ 0.38875 1 2 tcp 1040 ------- 0 1.0 2.0 78 156
- 0.38875 1 2 tcp 1040 ------- 0 1.0 2.0 78 156
r 0.390086 2 1 ack 40 ------- 0 2.0 1.0 73 151
r 0.391333 1 2 tcp 1040 ------- 0 1.0 2.0 76 152
+ 0.391333 2 1 ack 40 ------- 0 2.0 1.0 76 157
- 0.391333 2 1 ack 40 ------- 0 2.0 1.0 76 157
+ 0.3925 1 2 tcp 1040 ------- 0 1.0 2.0 79 158
- 0.3925 1 2 tcp 1040 ------- 0 1.0 2.0 79 158
r 0.393836 2 1 ack 40 ------- 0 2.0 1.0 74 153
r 0.395083 1 2 tcp 1040 ------- 0 1.0 2.0 77 154
+ 0.395083 2 1 ack 40 ------- 0 2.0 1.0 77 159
- 0.395083 2 1 ack 40 ------- 0 2.0 1.0 77 159
+ 0.39625 1 2 tcp 1040 ------- 0 1.0 2.0 80 160
- 0.39625 1 2 tcp 1040 ------- 0 1.0 2.0 80 160
r 0.397586 2 1 ack 40 ------- 0 2.0 1.0 75 155
r 0.398833 1 2 tcp 1040 ------- 0 1.0 2.0 78 156
+ 0.398833 2 1 ack 40 ------- 0 2.0 1.0 78 161
- 0.398833 2 1 ack 40 ------- 0 2.0 1.0 78 161
+ 0.4 1 2 tcp 1040 ------- 0 1.0 2.0 81 162
- 0.4 1 2 tcp 1040 ------- 0 1.0 2.0 81 162
r 0.401336 2 1 ack 40 ------- 0 2.0 1.0 76 157
r 0.402583 1 2 tcp 1040 ------- 0 1.0 2.0 79 158
+ 0.402583 2 1 ack 40 ------- 0 2.0 1.0 79 163
- 0.402583 2 1 ack 40 ------- 0 2.0 1.0 79 163
+ 0.40375 1 2 tcp 1040 ------- 0 1.0 2.0 82 164
- 0.40375 1 2 tcp 1040 ------- 0 1.0 2.0 82 164
r 0.405086 2 1 ack 40 ------- 0 2.0 1.0 77 159
r 0.406333 1 2 tcp 1040 ------- 0 1.0 2.0 80 160
+ 0.406333 2 1 ack 40 ------- 0 2.0 1.0 80 165
- 0.406333 2 1 ack 40 ------- 0 2.0 1.0 80 165
+ 0.4075 1 2 tcp 1040 ------- 0 1.0 2.0 83 166
- 0.4075 1 2 tcp 1040 ------- 0 1.0 2.0 83 166
r 0.408836 2 1 ack 40 ------- 0 2.0 1.0 78 161
r 0.410083 1 2 tcp 1040 ------- 0 1.0 2.0 81 162
+ 0.410083 2 1 ack 40 ------- 0 2.0 1.0 81 167
- 0.410083 2 1 ack 40 ------- 0 2.0 1.0 81 167
+ 0.41125 1 2 tcp 1040 ------- 0 1.0 2.0 84 168
- 0.41125 1 2 tcp 1040 ------- 0 1.0 2.0 84 168
r 0.412586 2 1 ack 40 ------- 0 2.0 1.0 79 163
r 0.413833 1 2 tcp 1040 ------- 0 1.0 2.0 82 164
+ 0.413833 2 1 ack 40 ------- 0 2.0 1.0 82 169
- 0.413833 2 1 ack 40 ------- 0 2.0 1.0 82 169
+ 0.415 1 2 tcp 1040 ------- 0 1.0 2.0 85 170
- 0.415 1 2 tcp 1040 ------- 0 1.0 2.0 85 170
r 0.416336 2 1 ack 40 ------- 0 2.0 1.0 80 165
r 0.417583 1 2 tcp 1040 ------- 0 1.0 2.0 83 166
+ 0.417583 2 1 ack 40 ------- 0 2.0 1.0 83 171
- 0.417583 2 1 ack 40 ------- 0 2.0 1.0 83 171
+ 0.41875 1 2 tcp 1040 ------- 0 1.0 2.0 86 172
- 0.41875 1 2 tcp 1040 ------- 0 1.0 2.0 86 172
r 0.420086 2 1 ack 40 ------- 0 2.0 1.0 81 167
r 0.421333 1 2 tcp 1040 ------- 0 1.0 2.0 84 168
+ 0.421333 2 1 ack 40 ------- 0 2.0 1.0 84 173
- 0.421333 2 1 ack 40 ------- 0 2.0 1.0 84 173
+ 0.4225 1 2 tcp 1040 ------- 0 1.0 2.0 87 174
- 0.4225 1 2 tcp 1040 ------- 0 1.0 2.0 87 174
r 0.423836 2 1 ack 40 ------- 0 2.0 1.0 82 169
r 0.425083 1 2 tcp 1040 ------- 0 1.0 2.0 85 170
+ 0.425083 2 1 ack 40 ------- 0 2.0 1.0 85 175
- 0.425083 2 1 ack 40 ------- 0 2.0 1.0 85 175
+ 0.42625 1 2 tcp 1040 ------- 0 1.0 2.0 88 176
- 0.42625 1 2 tcp 1040 ------- 0 1.0 2.0 88 176
r 0.427586 2 1 ack 40 ------- 0 2.0 1.0 83 171
r 0.428833 1 2 tcp 1040 ------- 0 1.0 2.0 86 172
+ 0.428833 2 1 ack 40 ------- 0 2.0 1.0 86 177
- 0.428833 2 1 ack 40 ------- 0 2.0 1.0 86 177
+ 0.43 1 2 tcp 1040 ------- 0 1.0 2.0 89 178
- 0.43 1 2 tcp 1040 ------- 0 1.0 2.0 89 178
r 0.431336 2 1 ack 40 ------- 0 2.0 1.0 84 173
r 0.432583 1 2 tcp 1040 ------- 0 1.0 2.0 87 174
+ 0.432583 2 1 ack 40 ------- 0 2.0 1.0 87 179
- 0.432583 2 1 ack 40 ------- 0 2.0 1.0 87 179
+ 0.43375 1 2 tcp 1040 ------- 0 1.0 2.0 90 180
- 0.43375 1 2 tcp 1040 ------- 0 1.0 2.0 90 180
r 0.435086 2 1 ack 40 ------- 0 2.0 1.0 85 175
r 0.436333 1 2 tcp 1040 ------- 0 1.0 2.0 88 176
+ 0.436333 2 1 ack 40 ------- 0 2.0 1.0 88 181
- 0.436333 2 1 ack 40 ------- 0 2.0 1.0 88 181
+ 0.4375 1 2 tcp 1040 ------- 0 1.0 2.0 91 182
- 0.4375 1 2 tcp 1040 ------- 0 1.0 2.0 91 182
r 0.438836 2 1 ack 40 ------- 0 2.0 1.0 86 177
r 0.440083 1 2 tcp 1040 ------- 0 1.0 2.0 89 178
+ 0.440083 2 1 ack 40 ------- 0 2.0 1.0 89 183
- 0.440083 2 1 ack 40 ------- 0 2.0 1.0 89 183
+ 0.44125 1 2 tcp 1040 ------- 0 1.0 2.0 92 184
- 0.44125 1 2 tcp 1040 ------- 0 1.0 2.0 92 184
r 0.442586 2 1 ack 40 ------- 0 2.0 1.0 87 179
r 0.443833 1 2 tcp 1040 ------- 0 1.0 2.0 90 180
+ 0.443833 2 1 ack 40 ------- 0 2.0 1.0 90 185
- 0.443833 2 1 ack 40 ------- 0 2.0 1.0 90 185
+ 0.445 1 2 tcp 1040 ------- 0 1.0 2.0 93 186
- 0.445 1 2 tcp 1040 ------- 0 1.0 2.0 93 186
r 0.446336 2 1 ack 40 ------- 0 2.0 1.0 88 181
r 0.447583 1 2 tcp 1040 ------- 0 1.0 2.0 91 182
+ 0.447583 2 1 ack 40 ------- 0 2.0 1.0 91 187
- 0.447583 2 1 ack 40 ------- 0 2.0 1.0 91 187
+ 0.44875 1 2 tcp 1040 ------- 0 1.0 2.0 94 188
- 0.44875 1 2 tcp 1040 ------- 0 1.0 2.0 94 188
r 0.450086 2 1 ack 40 ------- 0 2.0 1.0 89 183
r 0.451333 1 2 tcp 1040 ------- 0 1.0 2.0 92 184
+ 0.451333 2 1 ack 40 ------- 0 2.0 1.0 92 189
- 0.451333 2 1 ack 40 ------- 0 2.0 1.0 92 189
+ 0.4525 1 2 tcp 1040 ------- 0 1.0 2.0 95 190
- 0.4525 1 2 tcp 1040 ------- 0 1.0 2.0 95 190
r 0.453836 2 1 ack 40 ------- 0 2.0 1.0 90 185
r 0.455083 1 2 tcp 1040 ------- 0 1.0 2.0 93 186
+ 0.455083 2 1 ack 40 ------- 0 2.0 1.0 93 191
- 0.455083 2 1 ack 40 ------- 0 2.0 1.0 93 191
+ 0.45625 1 2 tcp 1040 ------- 0 1.0 2.0 96 192
- 0.45625 1 2 tcp 1040 ------- 0 1.0 2.0 96 192
r 0.457586 2 1 ack 40 ------- 0 2.0 1.0 91 187
r 0.458833 1 2 tcp 1040 ------- 0 1.0 2.0 94 188
+ 0.458833 2 1 ack 40 ------- 0 2.0 1.0 94 193
- 0.458833 2 1 ack 40 ------- 0 2.0 1.0 94 193
+ 0.46 1 2 tcp 1040 ------- 0 1.0 2.0 97 194
- 0.46 1 2 tcp 1040 ------- 0 1.0 2.0 97 194
r 0.461336 2 1 ack 40 ------- 0 2.0 1.0 92 189
r 0.462583 1 2 tcp 1040 ------- 0 1.0 2.0 95 190
+ 0.462583 2 1 ack 40 ------- 0 2.0 1.0 95 195
- 0.462583 2 1 ack 40 ------- 0 2.0 1.0 95 195
+ 0.46375 1 2 tcp 1040 ------- 0 1.0 2.0 98 196
- 0.46375 1 2 tcp 1040 ------- 0 1.0 2.0 98 196
r 0.465086 2 1 ack 40 ------- 0 2.0 1.0 93 191
r 0.466333 1 2 tcp 1040 ------- 0 1.0 2.0 96 192
+ 0.466333 2 1 ack 40 ------- 0 2.0 1.0 96 197
- 0.466333 2 1 ack 40 ------- 0 2.0 1.0 96 197
+ 0.4675 1 2 tcp 1040 ------- 0 1.0 2.0 99 198
- 0.4675 1 2 tcp 1040 ------- 0 1.0 2.0 99 198
r 0.468836 2 1 ack 40 ------- 0 2.0 1.0 94 193
r 0.470083 1 2 tcp 1040 ------- 0 1.0 2.0 97 194
+ 0.470083 2 1 ack 40 ------- 0 2.0 1.0 97 199
- 0.470083 2 1 ack 40 ------- 0 2.0 1.0 97 199
+ 0.47125 1 2 tcp 1040 ------- 0 1.0 2.0 100 200
- 0.47125 1 2 tcp 1040 ------- 0 1.0 2.0 100 200
r 0.472586 2 1 ack 40 ------- 0 2.0 1.0 95 195
r 0.473833 1 2 tcp 1040 ------- 0 1.0 2.0 98 196
+ 0.473833 2 1 ack 40 ------- 0 2.0 1.0 98 201
- 0.473833 2 1 ack 40 ------- 0 2.0 1.0 98 201
+ 0.475 1 2 tcp 1040 ------- 0 1.0 2.0 101 202
- 0.475 1 2 tcp 1040 ------- 0 1.0 2.0 101 202
r 0.476336 2 1 ack 40 ------- 0 2.0 1.0 96 197
r 0.477583 1 2 tcp 1040 ------- 0 1.0 2.0 99 198
+ 0.477583 2 1 ack 40 ------- 0 2.0 1.0 99 203
- 0.477583 2 1 ack 40 ------- 0 2.0 1.0 99 203
+ 0.47875 1 2 tcp 1040 ------- 0 1.0 2.0 102 204
- 0.47875 1 2 tcp 1040 ------- 0 1.0 2.0 102 204
r 0.480086 2 1 ack 40 ------- 0 2.0 1.0 97 199
r 0.481333 1 2 tcp 1040 ------- 0 1.0 2.0 100 200
+ 0.481333 2 1 ack 40 ------- 0 2.0 1.0 100 205
- 0.481333 2 1 ack 40 ------- 0 2.0 1.0 100 205
+ 0.4825 1 2 tcp 1040 ------- 0 1.0 2.0 103 206
- 0.4825 1 2 tcp 1040 ------- 0 1.0 2.0 103 206
r 0.483836 2 1 ack 40 ------- 0 2.0 1.0 98 201
r 0.485083 1 2 tcp 1040 ------- 0 1.0 2.0 101 202
+ 0.485083 2 1 ack 40 ------- 0 2.0 1.0 101 207
- 0.485083 2 1 ack 40 ------- 0 2.0 1.0 101 207
+ 0.48625 1 2 tcp 1040 ------- 0 1.0 2.0 104 208
- 0.48625 1 2 tcp 1040 ------- 0 1.0 2.0 104 208
r 0.487586 2 1 ack 40 ------- 0 2.0 1.0 99 203
r 0.488833 1 2 tcp 1040 ------- 0 1.0 2.0 102 204
+ 0.488833 2 1 ack 40 ------- 0 2.0 1.0 102 209
- 0.488833 2 1 ack 40 ------- 0 2.0 1.0 102 209
+ 0.49 1 2 tcp 1040 ------- 0 1.0 2.0 105 210
- 0.49 1 2 tcp 1040 ------- 0 1.0 2.0 105 210
r 0.491336 2 1 ack 40 ------- 0 2.0 1.0 100 205
r 0.492583 1 2 tcp 1040 ------- 0 1.0 2.0 103 206
+ 0.492583 2 1 ack 40 ------- 0 2.0 1.0 103 211
- 0.492583 2 1 ack 40 ------- 0 2.0 1.0 103 211
+ 0.49375 1 2 tcp 1040 ------- 0 1.0 2.0 106 212
- 0.49375 1 2 tcp 1040 ------- 0 1.0 2.0 106 212
r 0.495086 2 1 ack 40 ------- 0 2.0 1.0 101 207
r 0.496333 1 2 tcp 1040 ------- 0 1.0 2.0 104 208
+ 0.496333 2 1 ack 40 ------- 0 2.0 1.0 104 213
- 0.496333 2 1 ack 40 ------- 0 2.0 1.0 104 213
+ 0.4975 1 2 tcp 1040 ------- 0 1.0 2.0 107 214
- 0.4975 1 2 tcp 1040 ------- 0 1.0 2.0 107 214