+ 0.1 1 2 cbr 210 ------- 0 1.0 3.0 0 0
- 0.1 1 2 cbr 210 ------- 0 1.0 3.0 0 0
r 0.101168 1 2 cbr 210 ------- 0 1.0 3.0 0 0
+ 0.101168 2 3 cbr 210 ------- 0 1.0 3.0 0 0
- 0.101168 2 3 cbr 210 ------- 0 1.0 3.0 0 0
r 0.102336 2 3 cbr 210 ------- 0 1.0 3.0 0 0
+ 0.10375 1 2 cbr 210 ------- 0 1.0 3.0 1 1
- 0.10375 1 2 cbr 210 ------- 0 1.0 3.0 1 1
r 0.104918 1 2 cbr 210 ------- 0 1.0 3.0 1 1
+ 0.104918 2 3 cbr 210 ------- 0 1.0 3.0 1 1
- 0.104918 2 3 cbr 210 ------- 0 1.0 3.0 1 1
r 0.106086 2 3 cbr 210 ------- 0 1.0 3.0 1 1
+ 0.1075 1 2 cbr 210 ------- 0 1.0 3.0 2 2
- 0.1075 1 2 cbr 210 ------- 0 1.0 3.0 2 2
r 0.108668 1 2 cbr 210 ------- 0 1.0 3.0 2 2
+ 0.108668 2 3 cbr 210 ------- 0 1.0 3.0 2 2
- 0.108668 2 3 cbr 210 ------- 0 1.0 3.0 2 2
r 0.109836 2 3 cbr 210 ------- 0 1.0 3.0 2 2
+ 0.11125 1 2 cbr 210 ------- 0 1.0 3.0 3 3
- 0.11125 1 2 cbr 210 ------- 0 1.0 3.0 3 3
r 0.112418 1 2 cbr 210 ------- 0 1.0 3.0 3 3
+ 0.112418 2 3 cbr 210 ------- 0 1.0 3.0 3 3
- 0.112418 2 3 cbr 210 ------- 0 1.0 3.0 3 3
r 0.113586 2 3 cbr 210 ------- 0 1.0 3.0 3 3
+ 0.115 1 2 cbr 210 ------- 0 1.0 3.0 4 4
- 0.115 1 2 cbr 210 ------- 0 1.0 3.0 4 4
r 0.116168 1 2 cbr 210 ------- 0 1.0 3.0 4 4
+ 0.116168 2 3 cbr 210 ------- 0 1.0 3.0 4 4
- 0.116168 2 3 cbr 210 ------- 0 1.0 3.0 4 4
r 0.117336 2 3 cbr 210 ------- 0 1.0 3.0 4 4
+ 0.11875 1 2 cbr 210 ------- 0 1.0 3.0 5 5
- 0.11875 1 2 cbr 210 ------- 0 1.0 3.0 5 5
r 0.119918 1 2 cbr 210 ------- 0 1.0 3.0 5 5
+ 0.119918 2 3 cbr 210 ------- 0 1.0 3.0 5 5
- 0.119918 2 3 cbr 210 ------- 0 1.0 3.0 5 5
r 0.121086 2 3 cbr 210 ------- 0 1.0 3.0 5 5
+ 0.1225 1 2 cbr 210 ------- 0 1.0 3.0 6 6
- 0.1225 1 2 cbr 210 ------- 0 1.0 3.0 6 6
r 0.123668 1 2 cbr 210 ------- 0 1.0 3.0 6 6
+ 0.123668 2 3 cbr 210 ------- 0 1.0 3.0 6 6
- 0.123668 2 3 cbr 210 ------- 0 1.0 3.0 6 6
r 0.124836 2 3 cbr 210 ------- 0 1.0 3.0 6 6
+ 0.12625 1 2 cbr 210 ------- 0 1.0 3.0 7 7
- 0.12625 1 2 cbr 210 ------- 0 1.0 3.0 7 7
r 0.127418 1 2 cbr 210 ------- 0 1.0 3.0 7 7
+ 0.127418 2 3 cbr 210 ------- 0 1.0 3.0 7 7
- 0.127418 2 3 cbr 210 ------- 0 1.0 3.0 7 7
r 0.128586 2 3 cbr 210 ------- 0 1.0 3.0 7 7
+ 0.13 1 2 cbr 210 ------- 0 1.0 3.0 8 8
- 0.13 1 2 cbr 210 ------- 0 1.0 3.0 8 8
r 0.131168 1 2 cbr 210 ------- 0 1.0 3.0 8 8
+ 0.131168 2 3 cbr 210 ------- 0 1.0 3.0 8 8
- 0.131168 2 3 cbr 210 ------- 0 1.0 3.0 8 8
r 0.132336 2 3 cbr 210 ------- 0 1.0 3.0 8 8
+ 0.13375 1 2 cbr 210 ------- 0 1.0 3.0 9 9
- 0.13375 1 2 cbr 210 ------- 0 1.0 3.0 9 9
r 0.134918 1 2 cbr 210 ------- 0 1.0 3.0 9 9
+ 0.134918 2 3 cbr 210 ------- 0 1.0 3.0 9 9
- 0.134918 2 3 cbr 210 ------- 0 1.0 3.0 9 9
r 0.136086 2 3 cbr 210 ------- 0 1.0 3.0 9 9
+ 0.1375 1 2 cbr 210 ------- 0 1.0 3.0 10 10
- 0.1375 1 2 cbr 210 ------- 0 1.0 3.0 10 10
r 0.138668 1 2 cbr 210 ------- 0 1.0 3.0 10 10
+ 0.138668 2 3 cbr 210 ------- 0 1.0 3.0 10 10
- 0.138668 2 3 cbr 210 ------- 0 1.0 3.0 10 10
r 0.139836 2 3 cbr 210 ------- 0 1.0 3.0 10 10
+ 0.14125 1 2 cbr 210 ------- 0 1.0 3.0 11 11
- 0.14125 1 2 cbr 210 ------- 0 1.0 3.0 11 11
r 0.142418 1 2 cbr 210 ------- 0 1.0 3.0 11 11
+ 0.142418 2 3 cbr 210 ------- 0 1.0 3.0 11 11
- 0.142418 2 3 cbr 210 ------- 0 1.0 3.0 11 11
r 0.143586 2 3 cbr 210 ------- 0 1.0 3.0 11 11
+ 0.145 1 2 cbr 210 ------- 0 1.0 3.0 12 12
- 0.145 1 2 cbr 210 ------- 0 1.0 3.0 12 12
r 0.146168 1 2 cbr 210 ------- 0 1.0 3.0 12 12
+ 0.146168 2 3 cbr 210 ------- 0 1.0 3.0 12 12
- 0.146168 2 3 cbr 210 ------- 0 1.0 3.0 12 12
r 0.147336 2 3 cbr 210 ------- 0 1.0 3.0 12 12
+ 0.14875 1 2 cbr 210 ------- 0 1.0 3.0 13 13
- 0.14875 1 2 cbr 210 ------- 0 1.0 3.0 13 13
r 0.149918 1 2 cbr 210 ------- 0 1.0 3.0 13 13
+ 0.149918 2 3 cbr 210 ------- 0 1.0 3.0 13 13
- 0.149918 2 3 cbr 210 ------- 0 1.0 3.0 13 13
r 0.151086 2 3 cbr 210 ------- 0 1.0 3.0 13 13
+ 0.1525 1 2 cbr 210 ------- 0 1.0 3.0 14 14
- 0.1525 1 2 cbr 210 ------- 0 1.0 3.0 14 14
r 0.153668 1 2 cbr 210 ------- 0 1.0 3.0 14 14
+ 0.153668 2 3 cbr 210 ------- 0 1.0 3.0 14 14
- 0.153668 2 3 cbr 210 ------- 0 1.0 3.0 14 14
r 0.154836 2 3 cbr 210 ------- 0 1.0 3.0 14 14
+ 0.15625 1 2 cbr 210 ------- 0 1.0 3.0 15 15
- 0.15625 1 2 cbr 210 ------- 0 1.0 3.0 15 15
r 0.157418 1 2 cbr 210 ------- 0 1.0 3.0 15 15
+ 0.157418 2 3 cbr 210 ------- 0 1.0 3.0 15 15
- 0.157418 2 3 cbr 210 ------- 0 1.0 3.0 15 15
r 0.158586 2 3 cbr 210 ------- 0 1.0 3.0 15 15
+ 0.16 1 2 cbr 210 ------- 0 1.0 3.0 16 16
- 0.16 1 2 cbr 210 ------- 0 1.0 3.0 16 16
r 0.161168 1 2 cbr 210 ------- 0 1.0 3.0 16 16
+ 0.161168 2 3 cbr 210 ------- 0 1.0 3.0 16 16
- 0.161168 2 3 cbr 210 ------- 0 1.0 3.0 16 16
r 0.162336 2 3 cbr 210 ------- 0 1.0 3.0 16 16
+ 0.16375 1 2 cbr 210 ------- 0 1.0 3.0 17 17
- 0.16375 1 2 cbr 210 ------- 0 1.0 3.0 17 17
r 0.164918 1 2 cbr 210 ------- 0 1.0 3.0 17 17
+ 0.164918 2 3 cbr 210 ------- 0 1.0 3.0 17 17
- 0.164918 2 3 cbr 210 ------- 0 1.0 3.0 17 17
r 0.166086 2 3 cbr 210 ------- 0 1.0 3.0 17 17
+ 0.1675 1 2 cbr 210 ------- 0 1.0 3.0 18 18
- 0.1675 1 2 cbr 210 ------- 0 1.0 3.0 18 18
r 0.168668 1 2 cbr 210 ------- 0 1.0 3.0 18 18
+ 0.168668 2 3 cbr 210 ------- 0 1.0 3.0 18 18
- 0.168668 2 3 cbr 210 ------- 0 1.0 3.0 18 18
r 0.169836 2 3 cbr 210 ------- 0 1.0 3.0 18 18
+ 0.17125 1 2 cbr 210 ------- 0 1.0 3.0 19 19
- 0.17125 1 2 cbr 210 ------- 0 1.0 3.0 19 19
r 0.172418 1 2 cbr 210 ------- 0 1.0 3.0 19 19
+ 0.172418 2 3 cbr 210 ------- 0 1.0 3.0 19 19
- 0.172418 2 3 cbr 210 ------- 0 1.0 3.0 19 19
r 0.173586 2 3 cbr 210 ------- 0 1.0 3.0 19 19
+ 0.175 1 2 cbr 210 ------- 0 1.0 3.0 20 20
- 0.175 1 2 cbr 210 ------- 0 1.0 3.0 20 20
r 0.176168 1 2 cbr 210 ------- 0 1.0 3.0 20 20
+ 0.176168 2 3 cbr 210 ------- 0 1.0 3.0 20 20
- 0.176168 2 3 cbr 210 ------- 0 1.0 3.0 20 20
r 0.177336 2 3 cbr 210 ------- 0 1.0 3.0 20 20
+ 0.17875 1 2 cbr 210 ------- 0 1.0 3.0 21 21
- 0.17875 1 2 cbr 210 ------- 0 1.0 3.0 21 21
r 0.179918 1 2 cbr 210 ------- 0 1.0 3.0 21 21
+ 0.179918 2 3 cbr 210 ------- 0 1.0 3.0 21 21
- 0.179918 2 3 cbr 210 ------- 0 1.0 3.0 21 21
r 0.181086 2 3 cbr 210 ------- 0 1.0 3.0 21 21
+ 0.1825 1 2 cbr 210 ------- 0 1.0 3.0 22 22
- 0.1825 1 2 cbr 210 ------- 0 1.0 3.0 22 22
r 0.183668 1 2 cbr 210 ------- 0 1.0 3.0 22 22
+ 0.183668 2 3 cbr 210 ------- 0 1.0 3.0 22 22
- 0.183668 2 3 cbr 210 ------- 0 1.0 3.0 22 22
r 0.184836 2 3 cbr 210 ------- 0 1.0 3.0 22 22
+ 0.18625 1 2 cbr 210 ------- 0 1.0 3.0 23 23
- 0.18625 1 2 cbr 210 ------- 0 1.0 3.0 23 23
r 0.187418 1 2 cbr 210 ------- 0 1.0 3.0 23 23
+ 0.187418 2 3 cbr 210 ------- 0 1.0 3.0 23 23
- 0.187418 2 3 cbr 210 ------- 0 1.0 3.0 23 23
r 0.188586 2 3 cbr 210 ------- 0 1.0 3.0 23 23
+ 0.19 1 2 cbr 210 ------- 0 1.0 3.0 24 24
- 0.19 1 2 cbr 210 ------- 0 1.0 3.0 24 24
r 0.191168 1 2 cbr 210 ------- 0 1.0 3.0 24 24
+ 0.191168 2 3 cbr 210 ------- 0 1.0 3.0 24 24
- 0.191168 2 3 cbr 210 ------- 0 1.0 3.0 24 24
r 0.192336 2 3 cbr 210 ------- 0 1.0 3.0 24 24
+ 0.19375 1 2 cbr 210 ------- 0 1.0 3.0 25 25
- 0.19375 1 2 cbr 210 ------- 0 1.0 3.0 25 25
r 0.194918 1 2 cbr 210 ------- 0 1.0 3.0 25 25
+ 0.194918 2 3 cbr 210 ------- 0 1.0 3.0 25 25
- 0.194918 2 3 cbr 210 ------- 0 1.0 3.0 25 25
r 0.196086 2 3 cbr 210 ------- 0 1.0 3.0 25 25
+ 0.1975 1 2 cbr 210 ------- 0 1.0 3.0 26 26
- 0.1975 1 2 cbr 210 ------- 0 1.0 3.0 26 26
r 0.198668 1 2 cbr 210 ------- 0 1.0 3.0 26 26
+ 0.198668 2 3 cbr 210 ------- 0 1.0 3.0 26 26
- 0.198668 2 3 cbr 210 ------- 0 1.0 3.0 26 26
r 0.199836 2 3 cbr 210 ------- 0 1.0 3.0 26 26
+ 0.2 0 2 cbr 500 ------- 0 0.0 3.0 0 27
- 0.2 0 2 cbr 500 ------- 0 0.0 3.0 0 27
+ 0.20125 1 2 cbr 210 ------- 0 1.0 3.0 27 28
- 0.20125 1 2 cbr 210 ------- 0 1.0 3.0 27 28
r 0.2014 0 2 cbr 500 ------- 0 0.0 3.0 0 27
+ 0.2014 2 3 cbr 500 ------- 0 0.0 3.0 0 27
- 0.2014 2 3 cbr 500 ------- 0 0.0 3.0 0 27
r 0.202418 1 2 cbr 210 ------- 0 1.0 3.0 27 28
+ 0.202418 2 3 cbr 210 ------- 0 1.0 3.0 27 28
- 0.202418 2 3 cbr 210 ------- 0 1.0 3.0 27 28
r 0.2028 2 3 cbr 500 ------- 0 0.0 3.0 0 27
r 0.203586 2 3 cbr 210 ------- 0 1.0 3.0 27 28
+ 0.205 0 2 cbr 500 ------- 0 0.0 3.0 1 29
- 0.205 0 2 cbr 500 ------- 0 0.0 3.0 1 29
+ 0.205 1 2 cbr 210 ------- 0 1.0 3.0 28 30
- 0.205 1 2 cbr 210 ------- 0 1.0 3.0 28 30
r 0.206168 1 2 cbr 210 ------- 0 1.0 3.0 28 30
+ 0.206168 2 3 cbr 210 ------- 0 1.0 3.0 28 30
- 0.206168 2 3 cbr 210 ------- 0 1.0 3.0 28 30
r 0.2064 0 2 cbr 500 ------- 0 0.0 3.0 1 29
+ 0.2064 2 3 cbr 500 ------- 0 0.0 3.0 1 29
- 0.2064 2 3 cbr 500 ------- 0 0.0 3.0 1 29
r 0.207336 2 3 cbr 210 ------- 0 1.0 3.0 28 30
r 0.2078 2 3 cbr 500 ------- 0 0.0 3.0 1 29
+ 0.20875 1 2 cbr 210 ------- 0 1.0 3.0 29 31
- 0.20875 1 2 cbr 210 ------- 0 1.0 3.0 29 31
r 0.209918 1 2 cbr 210 ------- 0 1.0 3.0 29 31
+ 0.209918 2 3 cbr 210 ------- 0 1.0 3.0 29 31
- 0.209918 2 3 cbr 210 ------- 0 1.0 3.0 29 31
+ 0.21 0 2 cbr 500 ------- 0 0.0 3.0 2 32
- 0.21 0 2 cbr 500 ------- 0 0.0 3.0 2 32
r 0.211086 2 3 cbr 210 ------- 0 1.0 3.0 29 31
r 0.2114 0 2 cbr 500 ------- 0 0.0 3.0 2 32
+ 0.2114 2 3 cbr 500 ------- 0 0.0 3.0 2 32
- 0.2114 2 3 cbr 500 ------- 0 0.0 3.0 2 32
+ 0.2125 1 2 cbr 210 ------- 0 1.0 3.0 30 33
- 0.2125 1 2 cbr 210 ------- 0 1.0 3.0 30 33
r 0.2128 2 3 cbr 500 ------- 0 0.0 3.0 2 32
r 0.213668 1 2 cbr 210 ------- 0 1.0 3.0 30 33
+ 0.213668 2 3 cbr 210 ------- 0 1.0 3.0 30 33
- 0.213668 2 3 cbr 210 ------- 0 1.0 3.0 30 33
r 0.214836 2 3 cbr 210 ------- 0 1.0 3.0 30 33
+ 0.215 0 2 cbr 500 ------- 0 0.0 3.0 3 34
- 0.215 0 2 cbr 500 ------- 0 0.0 3.0 3 34
+ 0.21625 1 2 cbr 210 ------- 0 1.0 3.0 31 35
- 0.21625 1 2 cbr 210 ------- 0 1.0 3.0 31 35
r 0.2164 0 2 cbr 500 ------- 0 0.0 3.0 3 34
+ 0.2164 2 3 cbr 500 ------- 0 0.0 3.0 3 34
- 0.2164 2 3 cbr 500 ------- 0 0.0 3.0 3 34
r 0.217418 1 2 cbr 210 ------- 0 1.0 3.0 31 35
+ 0.217418 2 3 cbr 210 ------- 0 1.0 3.0 31 35
- 0.217418 2 3 cbr 210 ------- 0 1.0 3.0 31 35
r 0.2178 2 3 cbr 500 ------- 0 0.0 3.0 3 34
r 0.218586 2 3 cbr 210 ------- 0 1.0 3.0 31 35
+ 0.22 0 2 cbr 500 ------- 0 0.0 3.0 4 36
- 0.22 0 2 cbr 500 ------- 0 0.0 3.0 4 36
+ 0.22 1 2 cbr 210 ------- 0 1.0 3.0 32 37
- 0.22 1 2 cbr 210 ------- 0 1.0 3.0 32 37
r 0.221168 1 2 cbr 210 ------- 0 1.0 3.0 32 37
+ 0.221168 2 3 cbr 210 ------- 0 1.0 3.0 32 37
- 0.221168 2 3 cbr 210 ------- 0 1.0 3.0 32 37
r 0.2214 0 2 cbr 500 ------- 0 0.0 3.0 4 36
+ 0.2214 2 3 cbr 500 ------- 0 0.0 3.0 4 36
- 0.2214 2 3 cbr 500 ------- 0 0.0 3.0 4 36
r 0.222336 2 3 cbr 210 ------- 0 1.0 3.0 32 37
r 0.2228 2 3 cbr 500 ------- 0 0.0 3.0 4 36
+ 0.22375 1 2 cbr 210 ------- 0 1.0 3.0 33 38
- 0.22375 1 2 cbr 210 ------- 0 1.0 3.0 33 38
r 0.224918 1 2 cbr 210 ------- 0 1.0 3.0 33 38
+ 0.224918 2 3 cbr 210 ------- 0 1.0 3.0 33 38
- 0.224918 2 3 cbr 210 ------- 0 1.0 3.0 33 38
+ 0.225 0 2 cbr 500 ------- 0 0.0 3.0 5 39
- 0.225 0 2 cbr 500 ------- 0 0.0 3.0 5 39
r 0.226086 2 3 cbr 210 ------- 0 1.0 3.0 33 38
r 0.2264 0 2 cbr 500 ------- 0 0.0 3.0 5 39
+ 0.2264 2 3 cbr 500 ------- 0 0.0 3.0 5 39
- 0.2264 2 3 cbr 500 ------- 0 0.0 3.0 5 39
+ 0.2275 1 2 cbr 210 ------- 0 1.0 3.0 34 40
- 0.2275 1 2 cbr 210 ------- 0 1.0 3.0 34 40
r 0.2278 2 3 cbr 500 ------- 0 0.0 3.0 5 39
r 0.228668 1 2 cbr 210 ------- 0 1.0 3.0 34 40
+ 0.228668 2 3 cbr 210 ------- 0 1.0 3.0 34 40
- 0.228668 2 3 cbr 210 ------- 0 1.0 3.0 34 40
r 0.229836 2 3 cbr 210 ------- 0 1.0 3.0 34 40
+ 0.23 0 2 cbr 500 ------- 0 0.0 3.0 6 41
- 0.23 0 2 cbr 500 ------- 0 0.0 3.0 6 41
+ 0.23125 1 2 cbr 210 ------- 0 1.0 3.0 35 42
- 0.23125 1 2 cbr 210 ------- 0 1.0 3.0 35 42
r 0.2314 0 2 cbr 500 ------- 0 0.0 3.0 6 41
+ 0.2314 2 3 cbr 500 ------- 0 0.0 3.0 6 41
- 0.2314 2 3 cbr 500 ------- 0 0.0 3.0 6 41
r 0.232418 1 2 cbr 210 ------- 0 1.0 3.0 35 42
+ 0.232418 2 3 cbr 210 ------- 0 1.0 3.0 35 42
- 0.232418 2 3 cbr 210 ------- 0 1.0 3.0 35 42
r 0.2328 2 3 cbr 500 ------- 0 0.0 3.0 6 41
r 0.233586 2 3 cbr 210 ------- 0 1.0 3.0 35 42
+ 0.235 0 2 cbr 500 ------- 0 0.0 3.0 7 43
- 0.235 0 2 cbr 500 ------- 0 0.0 3.0 7 43
+ 0.235 1 2 cbr 210 ------- 0 1.0 3.0 36 44
- 0.235 1 2 cbr 210 ------- 0 1.0 3.0 36 44
r 0.236168 1 2 cbr 210 ------- 0 1.0 3.0 36 44
+ 0.236168 2 3 cbr 210 ------- 0 1.0 3.0 36 44
- 0.236168 2 3 cbr 210 ------- 0 1.0 3.0 36 44
r 0.2364 0 2 cbr 500 ------- 0 0.0 3.0 7 43
+ 0.2364 2 3 cbr 500 ------- 0 0.0 3.0 7 43
- 0.2364 2 3 cbr 500 ------- 0 0.0 3.0 7 43
r 0.237336 2 3 cbr 210 ------- 0 1.0 3.0 36 44
r 0.2378 2 3 cbr 500 ------- 0 0.0 3.0 7 43
+ 0.23875 1 2 cbr 210 ------- 0 1.0 3.0 37 45
- 0.23875 1 2 cbr 210 ------- 0 1.0 3.0 37 45
r 0.239918 1 2 cbr 210 ------- 0 1.0 3.0 37 45
+ 0.239918 2 3 cbr 210 ------- 0 1.0 3.0 37 45
- 0.239918 2 3 cbr 210 ------- 0 1.0 3.0 37 45
+ 0.24 0 2 cbr 500 ------- 0 0.0 3.0 8 46
- 0.24 0 2 cbr 500 ------- 0 0.0 3.0 8 46
r 0.241086 2 3 cbr 210 ------- 0 1.0 3.0 37 45
r 0.2414 0 2 cbr 500 ------- 0 0.0 3.0 8 46
+ 0.2414 2 3 cbr 500 ------- 0 0.0 3.0 8 46
- 0.2414 2 3 cbr 500 ------- 0 0.0 3.0 8 46
+ 0.2425 1 2 cbr 210 ------- 0 1.0 3.0 38 47
- 0.2425 1 2 cbr 210 ------- 0 1.0 3.0 38 47
r 0.2428 2 3 cbr 500 ------- 0 0.0 3.0 8 46
r 0.243668 1 2 cbr 210 ------- 0 1.0 3.0 38 47
+ 0.243668 2 3 cbr 210 ------- 0 1.0 3.0 38 47
- 0.243668 2 3 cbr 210 ------- 0 1.0 3.0 38 47
r 0.244836 2 3 cbr 210 ------- 0 1.0 3.0 38 47
+ 0.245 0 2 cbr 500 ------- 0 0.0 3.0 9 48
- 0.245 0 2 cbr 500 ------- 0 0.0 3.0 9 48
+ 0.24625 1 2 cbr 210 ------- 0 1.0 3.0 39 49
- 0.24625 1 2 cbr 210 ------- 0 1.0 3.0 39 49
r 0.2464 0 2 cbr 500 ------- 0 0.0 3.0 9 48
+ 0.2464 2 3 cbr 500 ------- 0 0.0 3.0 9 48
- 0.2464 2 3 cbr 500 ------- 0 0.0 3.0 9 48
r 0.247418 1 2 cbr 210 ------- 0 1.0 3.0 39 49
+ 0.247418 2 3 cbr 210 ------- 0 1.0 3.0 39 49
- 0.247418 2 3 cbr 210 ------- 0 1.0 3.0 39 49
r 0.2478 2 3 cbr 500 ------- 0 0.0 3.0 9 48
r 0.248586 2 3 cbr 210 ------- 0 1.0 3.0 39 49
+ 0.25 0 2 cbr 500 ------- 0 0.0 3.0 10 50
- 0.25 0 2 cbr 500 ------- 0 0.0 3.0 10 50
+ 0.25 1 2 cbr 210 ------- 0 1.0 3.0 40 51
- 0.25 1 2 cbr 210 ------- 0 1.0 3.0 40 51
r 0.251168 1 2 cbr 210 ------- 0 1.0 3.0 40 51
+ 0.251168 2 3 cbr 210 ------- 0 1.0 3.0 40 51
- 0.251168 2 3 cbr 210 ------- 0 1.0 3.0 40 51
r 0.2514 0 2 cbr 500 ------- 0 0.0 3.0 10 50
+ 0.2514 2 3 cbr 500 ------- 0 0.0 3.0 10 50
- 0.2514 2 3 cbr 500 ------- 0 0.0 3.0 10 50
r 0.252336 2 3 cbr 210 ------- 0 1.0 3.0 40 51
r 0.2528 2 3 cbr 500 ------- 0 0.0 3.0 10 50
+ 0.25375 1 2 cbr 210 ------- 0 1.0 3.0 41 52
- 0.25375 1 2 cbr 210 ------- 0 1.0 3.0 41 52
r 0.254918 1 2 cbr 210 ------- 0 1.0 3.0 41 52
+ 0.254918 2 3 cbr 210 ------- 0 1.0 3.0 41 52
- 0.254918 2 3 cbr 210 ------- 0 1.0 3.0 41 52
+ 0.255 0 2 cbr 500 ------- 0 0.0 3.0 11 53
- 0.255 0 2 cbr 500 ------- 0 0.0 3.0 11 53
r 0.256086 2 3 cbr 210 ------- 0 1.0 3.0 41 52
r 0.2564 0 2 cbr 500 ------- 0 0.0 3.0 11 53
+ 0.2564 2 3 cbr 500 ------- 0 0.0 3.0 11 53
- 0.2564 2 3 cbr 500 ------- 0 0.0 3.0 11 53
+ 0.2575 1 2 cbr 210 ------- 0 1.0 3.0 42 54
- 0.2575 1 2 cbr 210 ------- 0 1.0 3.0 42 54
r 0.2578 2 3 cbr 500 ------- 0 0.0 3.0 11 53
r 0.258668 1 2 cbr 210 ------- 0 1.0 3.0 42 54
+ 0.258668 2 3 cbr 210 ------- 0 1.0 3.0 42 54
- 0.258668 2 3 cbr 210 ------- 0 1.0 3.0 42 54
r 0.259836 2 3 cbr 210 ------- 0 1.0 3.0 42 54
+ 0.26 0 2 cbr 500 ------- 0 0.0 3.0 12 55
- 0.26 0 2 cbr 500 ------- 0 0.0 3.0 12 55
+ 0.26125 1 2 cbr 210 ------- 0 1.0 3.0 43 56
- 0.26125 1 2 cbr 210 ------- 0 1.0 3.0 43 56
r 0.2614 0 2 cbr 500 ------- 0 0.0 3.0 12 55
+ 0.2614 2 3 cbr 500 ------- 0 0.0 3.0 12 55
- 0.2614 2 3 cbr 500 ------- 0 0.0 3.0 12 55
r 0.262418 1 2 cbr 210 ------- 0 1.0 3.0 43 56
+ 0.262418 2 3 cbr 210 ------- 0 1.0 3.0 43 56
- 0.262418 2 3 cbr 210 ------- 0 1.0 3.0 43 56
r 0.2628 2 3 cbr 500 ------- 0 0.0 3.0 12 55
r 0.263586 2 3 cbr 210 ------- 0 1.0 3.0 43 56
+ 0.265 1 2 cbr 210 ------- 0 1.0 3.0 44 57
- 0.265 1 2 cbr 210 ------- 0 1.0 3.0 44 57
+ 0.265 0 2 cbr 500 ------- 0 0.0 3.0 13 58
- 0.265 0 2 cbr 500 ------- 0 0.0 3.0 13 58
r 0.266168 1 2 cbr 210 ------- 0 1.0 3.0 44 57
+ 0.266168 2 3 cbr 210 ------- 0 1.0 3.0 44 57
- 0.266168 2 3 cbr 210 ------- 0 1.0 3.0 44 57
r 0.2664 0 2 cbr 500 ------- 0 0.0 3.0 13 58
+ 0.2664 2 3 cbr 500 ------- 0 0.0 3.0 13 58
- 0.2664 2 3 cbr 500 ------- 0 0.0 3.0 13 58
r 0.267336 2 3 cbr 210 ------- 0 1.0 3.0 44 57
r 0.2678 2 3 cbr 500 ------- 0 0.0 3.0 13 58
+ 0.26875 1 2 cbr 210 ------- 0 1.0 3.0 45 59
- 0.26875 1 2 cbr 210 ------- 0 1.0 3.0 45 59
r 0.269918 1 2 cbr 210 ------- 0 1.0 3.0 45 59
+ 0.269918 2 3 cbr 210 ------- 0 1.0 3.0 45 59
- 0.269918 2 3 cbr 210 ------- 0 1.0 3.0 45 59
+ 0.27 0 2 cbr 500 ------- 0 0.0 3.0 14 60
- 0.27 0 2 cbr 500 ------- 0 0.0 3.0 14 60
r 0.271086 2 3 cbr 210 ------- 0 1.0 3.0 45 59
r 0.2714 0 2 cbr 500 ------- 0 0.0 3.0 14 60
+ 0.2714 2 3 cbr 500 ------- 0 0.0 3.0 14 60
- 0.2714 2 3 cbr 500 ------- 0 0.0 3.0 14 60
+ 0.2725 1 2 cbr 210 ------- 0 1.0 3.0 46 61
- 0.2725 1 2 cbr 210 ------- 0 1.0 3.0 46 61
r 0.2728 2 3 cbr 500 ------- 0 0.0 3.0 14 60
r 0.273668 1 2 cbr 210 ------- 0 1.0 3.0 46 61
+ 0.273668 2 3 cbr 210 ------- 0 1.0 3.0 46 61
- 0.273668 2 3 cbr 210 ------- 0 1.0 3.0 46 61
r 0.274836 2 3 cbr 210 ------- 0 1.0 3.0 46 61
+ 0.275 0 2 cbr 500 ------- 0 0.0 3.0 15 62
- 0.275 0 2 cbr 500 ------- 0 0.0 3.0 15 62
+ 0.27625 1 2 cbr 210 ------- 0 1.0 3.0 47 63
- 0.27625 1 2 cbr 210 ------- 0 1.0 3.0 47 63
r 0.2764 0 2 cbr 500 ------- 0 0.0 3.0 15 62
+ 0.2764 2 3 cbr 500 ------- 0 0.0 3.0 15 62
- 0.2764 2 3 cbr 500 ------- 0 0.0 3.0 15 62
r 0.277418 1 2 cbr 210 ------- 0 1.0 3.0 47 63
+ 0.277418 2 3 cbr 210 ------- 0 1.0 3.0 47 63
- 0.277418 2 3 cbr 210 ------- 0 1.0 3.0 47 63
r 0.2778 2 3 cbr 500 ------- 0 0.0 3.0 15 62
r 0.278586 2 3 cbr 210 ------- 0 1.0 3.0 47 63
+ 0.28 1 2 cbr 210 ------- 0 1.0 3.0 48 64
- 0.28 1 2 cbr 210 ------- 0 1.0 3.0 48 64
+ 0.28 0 2 cbr 500 ------- 0 0.0 3.0 16 65
- 0.28 0 2 cbr 500 ------- 0 0.0 3.0 16 65
r 0.281168 1 2 cbr 210 ------- 0 1.0 3.0 48 64
+ 0.281168 2 3 cbr 210 ------- 0 1.0 3.0 48 64
- 0.281168 2 3 cbr 210 ------- 0 1.0 3.0 48 64
r 0.2814 0 2 cbr 500 ------- 0 0.0 3.0 16 65
+ 0.2814 2 3 cbr 500 ------- 0 0.0 3.0 16 65
- 0.2814 2 3 cbr 500 ------- 0 0.0 3.0 16 65
r 0.282336 2 3 cbr 210 ------- 0 1.0 3.0 48 64
r 0.2828 2 3 cbr 500 ------- 0 0.0 3.0 16 65
+ 0.28375 1 2 cbr 210 ------- 0 1.0 3.0 49 66
- 0.28375 1 2 cbr 210 ------- 0 1.0 3.0 49 66
r 0.284918 1 2 cbr 210 ------- 0 1.0 3.0 49 66
+ 0.284918 2 3 cbr 210 ------- 0 1.0 3.0 49 66
- 0.284918 2 3 cbr 210 ------- 0 1.0 3.0 49 66
+ 0.285 0 2 cbr 500 ------- 0 0.0 3.0 17 67
- 0.285 0 2 cbr 500 ------- 0 0.0 3.0 17 67
r 0.286086 2 3 cbr 210 ------- 0 1.0 3.0 49 66
r 0.2864 0 2 cbr 500 ------- 0 0.0 3.0 17 67
+ 0.2864 2 3 cbr 500 ------- 0 0.0 3.0 17 67
- 0.2864 2 3 cbr 500 ------- 0 0.0 3.0 17 67
+ 0.2875 1 2 cbr 210 ------- 0 1.0 3.0 50 68
- 0.2875 1 2 cbr 210 ------- 0 1.0 3.0 50 68
r 0.2878 2 3 cbr 500 ------- 0 0.0 3.0 17 67
r 0.288668 1 2 cbr 210 ------- 0 1.0 3.0 50 68
+ 0.288668 2 3 cbr 210 ------- 0 1.0 3.0 50 68
- 0.288668 2 3 cbr 210 ------- 0 1.0 3.0 50 68
r 0.289836 2 3 cbr 210 ------- 0 1.0 3.0 50 68
+ 0.29 0 2 cbr 500 ------- 0 0.0 3.0 18 69
- 0.29 0 2 cbr 500 ------- 0 0.0 3.0 18 69
+ 0.29125 1 2 cbr 210 ------- 0 1.0 3.0 51 70
- 0.29125 1 2 cbr 210 ------- 0 1.0 3.0 51 70
r 0.2914 0 2 cbr 500 ------- 0 0.0 3.0 18 69
+ 0.2914 2 3 cbr 500 ------- 0 0.0 3.0 18 69
- 0.2914 2 3 cbr 500 ------- 0 0.0 3.0 18 69
r 0.292418 1 2 cbr 210 ------- 0 1.0 3.0 51 70
+ 0.292418 2 3 cbr 210 ------- 0 1.0 3.0 51 70
- 0.292418 2 3 cbr 210 ------- 0 1.0 3.0 51 70
r 0.2928 2 3 cbr 500 ------- 0 0.0 3.0 18 69
r 0.293586 2 3 cbr 210 ------- 0 1.0 3.0 51 70
+ 0.295 1 2 cbr 210 ------- 0 1.0 3.0 52 71
- 0.295 1 2 cbr 210 ------- 0 1.0 3.0 52 71
+ 0.295 0 2 cbr 500 ------- 0 0.0 3.0 19 72
- 0.295 0 2 cbr 500 ------- 0 0.0 3.0 19 72
r 0.296168 1 2 cbr 210 ------- 0 1.0 3.0 52 71
+ 0.296168 2 3 cbr 210 ------- 0 1.0 3.0 52 71
- 0.296168 2 3 cbr 210 ------- 0 1.0 3.0 52 71
r 0.2964 0 2 cbr 500 ------- 0 0.0 3.0 19 72
+ 0.2964 2 3 cbr 500 ------- 0 0.0 3.0 19 72
- 0.2964 2 3 cbr 500 ------- 0 0.0 3.0 19 72
r 0.297336 2 3 cbr 210 ------- 0 1.0 3.0 52 71
r 0.2978 2 3 cbr 500 ------- 0 0.0 3.0 19 72
+ 0.29875 1 2 cbr 210 ------- 0 1.0 3.0 53 73
- 0.29875 1 2 cbr 210 ------- 0 1.0 3.0 53 73
r 0.299918 1 2 cbr 210 ------- 0 1.0 3.0 53 73
+ 0.299918 2 3 cbr 210 ------- 0 1.0 3.0 53 73
- 0.299918 2 3 cbr 210 ------- 0 1.0 3.0 53 73
+ 0.3 0 2 cbr 500 ------- 0 0.0 3.0 20 74
- 0.3 0 2 cbr 500 ------- 0 0.0 3.0 20 74
r 0.301086 2 3 cbr 210 ------- 0 1.0 3.0 53 73
r 0.3014 0 2 cbr 500 ------- 0 0.0 3.0 20 74
+ 0.3014 2 3 cbr 500 ------- 0 0.0 3.0 20 74
- 0.3014 2 3 cbr 500 ------- 0 0.0 3.0 20 74
+ 0.3025 1 2 cbr 210 ------- 0 1.0 3.0 54 75
- 0.3025 1 2 cbr 210 ------- 0 1.0 3.0 54 75
r 0.3028 2 3 cbr 500 ------- 0 0.0 3.0 20 74
r 0.303668 1 2 cbr 210 ------- 0 1.0 3.0 54 75
+ 0.303668 2 3 cbr 210 ------- 0 1.0 3.0 54 75
- 0.303668 2 3 cbr 210 ------- 0 1.0 3.0 54 75
r 0.304836 2 3 cbr 210 ------- 0 1.0 3.0 54 75
+ 0.305 0 2 cbr 500 ------- 0 0.0 3.0 21 76
- 0.305 0 2 cbr 500 ------- 0 0.0 3.0 21 76
+ 0.30625 1 2 cbr 210 ------- 0 1.0 3.0 55 77
- 0.30625 1 2 cbr 210 ------- 0 1.0 3.0 55 77
r 0.3064 0 2 cbr 500 ------- 0 0.0 3.0 21 76
+ 0.3064 2 3 cbr 500 ------- 0 0.0 3.0 21 76
- 0.3064 2 3 cbr 500 ------- 0 0.0 3.0 21 76
r 0.307418 1 2 cbr 210 ------- 0 1.0 3.0 55 77
+ 0.307418 2 3 cbr 210 ------- 0 1.0 3.0 55 77
- 0.307418 2 3 cbr 210 ------- 0 1.0 3.0 55 77
r 0.3078 2 3 cbr 500 ------- 0 0.0 3.0 21 76
r 0.308586 2 3 cbr 210 ------- 0 1.0 3.0 55 77
+ 0.31 1 2 cbr 210 ------- 0 1.0 3.0 56 78
- 0.31 1 2 cbr 210 ------- 0 1.0 3.0 56 78
+ 0.31 0 2 cbr 500 ------- 0 0.0 3.0 22 79
- 0.31 0 2 cbr 500 ------- 0 0.0 3.0 22 79
r 0.311168 1 2 cbr 210 ------- 0 1.0 3.0 56 78
+ 0.311168 2 3 cbr 210 ------- 0 1.0 3.0 56 78
- 0.311168 2 3 cbr 210 ------- 0 1.0 3.0 56 78
r 0.3114 0 2 cbr 500 ------- 0 0.0 3.0 22 79
+ 0.3114 2 3 cbr 500 ------- 0 0.0 3.0 22 79
- 0.3114 2 3 cbr 500 ------- 0 0.0 3.0 22 79
r 0.312336 2 3 cbr 210 ------- 0 1.0 3.0 56 78
r 0.3128 2 3 cbr 500 ------- 0 0.0 3.0 22 79
+ 0.31375 1 2 cbr 210 ------- 0 1.0 3.0 57 80
- 0.31375 1 2 cbr 210 ------- 0 1.0 3.0 57 80
r 0.314918 1 2 cbr 210 ------- 0 1.0 3.0 57 80
+ 0.314918 2 3 cbr 210 ------- 0 1.0 3.0 57 80
- 0.314918 2 3 cbr 210 ------- 0 1.0 3.0 57 80
+ 0.315 0 2 cbr 500 ------- 0 0.0 3.0 23 81
- 0.315 0 2 cbr 500 ------- 0 0.0 3.0 23 81
r 0.316086 2 3 cbr 210 ------- 0 1.0 3.0 57 80
r 0.3164 0 2 cbr 500 ------- 0 0.0 3.0 23 81
+ 0.3164 2 3 cbr 500 ------- 0 0.0 3.0 23 81
- 0.3164 2 3 cbr 500 ------- 0 0.0 3.0 23 81
+ 0.3175 1 2 cbr 210 ------- 0 1.0 3.0 58 82
- 0.3175 1 2 cbr 210 ------- 0 1.0 3.0 58 82
r 0.3178 2 3 cbr 500 ------- 0 0.0 3.0 23 81
r 0.318668 1 2 cbr 210 ------- 0 1.0 3.0 58 82
+ 0.318668 2 3 cbr 210 ------- 0 1.0 3.0 58 82
- 0.318668 2 3 cbr 210 ------- 0 1.0 3.0 58 82
r 0.319836 2 3 cbr 210 ------- 0 1.0 3.0 58 82
+ 0.32 0 2 cbr 500 ------- 0 0.0 3.0 24 83
- 0.32 0 2 cbr 500 ------- 0 0.0 3.0 24 83
+ 0.32125 1 2 cbr 210 ------- 0 1.0 3.0 59 84
- 0.32125 1 2 cbr 210 ------- 0 1.0 3.0 59 84
r 0.3214 0 2 cbr 500 ------- 0 0.0 3.0 24 83
+ 0.3214 2 3 cbr 500 ------- 0 0.0 3.0 24 83
- 0.3214 2 3 cbr 500 ------- 0 0.0 3.0 24 83
r 0.322418 1 2 cbr 210 ------- 0 1.0 3.0 59 84
+ 0.322418 2 3 cbr 210 ------- 0 1.0 3.0 59 84
- 0.322418 2 3 cbr 210 ------- 0 1.0 3.0 59 84
r 0.3228 2 3 cbr 500 ------- 0 0.0 3.0 24 83
r 0.323586 2 3 cbr 210 ------- 0 1.0 3.0 59 84
+ 0.325 1 2 cbr 210 ------- 0 1.0 3.0 60 85
- 0.325 1 2 cbr 210 ------- 0 1.0 3.0 60 85
+ 0.325 0 2 cbr 500 ------- 0 0.0 3.0 25 86
- 0.325 0 2 cbr 500 ------- 0 0.0 3.0 25 86
r 0.326168 1 2 cbr 210 ------- 0 1.0 3.0 60 85
+ 0.326168 2 3 cbr 210 ------- 0 1.0 3.0 60 85
- 0.326168 2 3 cbr 210 ------- 0 1.0 3.0 60 85
r 0.3264 0 2 cbr 500 ------- 0 0.0 3.0 25 86
+ 0.3264 2 3 cbr 500 ------- 0 0.0 3.0 25 86
- 0.3264 2 3 cbr 500 ------- 0 0.0 3.0 25 86
r 0.327336 2 3 cbr 210 ------- 0 1.0 3.0 60 85
r 0.3278 2 3 cbr 500 ------- 0 0.0 3.0 25 86
+ 0.32875 1 2 cbr 210 ------- 0 1.0 3.0 61 87
- 0.32875 1 2 cbr 210 ------- 0 1.0 3.0 61 87
r 0.329918 1 2 cbr 210 ------- 0 1.0 3.0 61 87
+ 0.329918 2 3 cbr 210 ------- 0 1.0 3.0 61 87
- 0.329918 2 3 cbr 210 ------- 0 1.0 3.0 61 87
+ 0.33 0 2 cbr 500 ------- 0 0.0 3.0 26 88
- 0.33 0 2 cbr 500 ------- 0 0.0 3.0 26 88
r 0.331086 2 3 cbr 210 ------- 0 1.0 3.0 61 87
r 0.3314 0 2 cbr 500 ------- 0 0.0 3.0 26 88
+ 0.3314 2 3 cbr 500 ------- 0 0.0 3.0 26 88
- 0.3314 2 3 cbr 500 ------- 0 0.0 3.0 26 88
+ 0.3325 1 2 cbr 210 ------- 0 1.0 3.0 62 89
- 0.3325 1 2 cbr 210 ------- 0 1.0 3.0 62 89
r 0.3328 2 3 cbr 500 ------- 0 0.0 3.0 26 88
r 0.333668 1 2 cbr 210 ------- 0 1.0 3.0 62 89
+ 0.333668 2 3 cbr 210 ------- 0 1.0 3.0 62 89
- 0.333668 2 3 cbr 210 ------- 0 1.0 3.0 62 89
r 0.334836 2 3 cbr 210 ------- 0 1.0 3.0 62 89
+ 0.335 0 2 cbr 500 ------- 0 0.0 3.0 27 90
- 0.335 0 2 cbr 500 ------- 0 0.0 3.0 27 90
+ 0.33625 1 2 cbr 210 ------- 0 1.0 3.0 63 91
- 0.33625 1 2 cbr 210 ------- 0 1.0 3.0 63 91
r 0.3364 0 2 cbr 500 ------- 0 0.0 3.0 27 90
+ 0.3364 2 3 cbr 500 ------- 0 0.0 3.0 27 90
- 0.3364 2 3 cbr 500 ------- 0 0.0 3.0 27 90
r 0.337418 1 2 cbr 210 ------- 0 1.0 3.0 63 91
+ 0.337418 2 3 cbr 210 ------- 0 1.0 3.0 63 91
- 0.337418 2 3 cbr 210 ------- 0 1.0 3.0 63 91
r 0.3378 2 3 cbr 500 ------- 0 0.0 3.0 27 90
r 0.338586 2 3 cbr 210 ------- 0 1.0 3.0 63 91
+ 0.34 1 2 cbr 210 ------- 0 1.0 3.0 64 92
- 0.34 1 2 cbr 210 ------- 0 1.0 3.0 64 92
+ 0.34 0 2 cbr 500 ------- 0 0.0 3.0 28 93
- 0.34 0 2 cbr 500 ------- 0 0.0 3.0 28 93
r 0.341168 1 2 cbr 210 ------- 0 1.0 3.0 64 92
+ 0.341168 2 3 cbr 210 ------- 0 1.0 3.0 64 92
- 0.341168 2 3 cbr 210 ------- 0 1.0 3.0 64 92
r 0.3414 0 2 cbr 500 ------- 0 0.0 3.0 28 93
+ 0.3414 2 3 cbr 500 ------- 0 0.0 3.0 28 93
- 0.3414 2 3 cbr 500 ------- 0 0.0 3.0 28 93
r 0.342336 2 3 cbr 210 ------- 0 1.0 3.0 64 92
r 0.3428 2 3 cbr 500 ------- 0 0.0 3.0 28 93
+ 0.34375 1 2 cbr 210 ------- 0 1.0 3.0 65 94
- 0.34375 1 2 cbr 210 ------- 0 1.0 3.0 65 94
r 0.344918 1 2 cbr 210 ------- 0 1.0 3.0 65 94
+ 0.344918 2 3 cbr 210 ------- 0 1.0 3.0 65 94
- 0.344918 2 3 cbr 210 ------- 0 1.0 3.0 65 94
+ 0.345 0 2 cbr 500 ------- 0 0.0 3.0 29 95
- 0.345 0 2 cbr 500 ------- 0 0.0 3.0 29 95
r 0.346086 2 3 cbr 210 ------- 0 1.0 3.0 65 94
r 0.3464 0 2 cbr 500 ------- 0 0.0 3.0 29 95
+ 0.3464 2 3 cbr 500 ------- 0 0.0 3.0 29 95
- 0.3464 2 3 cbr 500 ------- 0 0.0 3.0 29 95
+ 0.3475 1 2 cbr 210 ------- 0 1.0 3.0 66 96
- 0.3475 1 2 cbr 210 ------- 0 1.0 3.0 66 96
r 0.3478 2 3 cbr 500 ------- 0 0.0 3.0 29 95
r 0.348668 1 2 cbr 210 ------- 0 1.0 3.0 66 96
+ 0.348668 2 3 cbr 210 ------- 0 1.0 3.0 66 96
- 0.348668 2 3 cbr 210 ------- 0 1.0 3.0 66 96
r 0.349836 2 3 cbr 210 ------- 0 1.0 3.0 66 96
+ 0.35 0 2 cbr 500 ------- 0 0.0 3.0 30 97
- 0.35 0 2 cbr 500 ------- 0 0.0 3.0 30 97
+ 0.35125 1 2 cbr 210 ------- 0 1.0 3.0 67 98
- 0.35125 1 2 cbr 210 ------- 0 1.0 3.0 67 98
r 0.3514 0 2 cbr 500 ------- 0 0.0 3.0 30 97
+ 0.3514 2 3 cbr 500 ------- 0 0.0 3.0 30 97
- 0.3514 2 3 cbr 500 ------- 0 0.0 3.0 30 97
r 0.352418 1 2 cbr 210 ------- 0 1.0 3.0 67 98
+ 0.352418 2 3 cbr 210 ------- 0 1.0 3.0 67 98
- 0.352418 2 3 cbr 210 ------- 0 1.0 3.0 67 98
r 0.3528 2 3 cbr 500 ------- 0 0.0 3.0 30 97
r 0.353586 2 3 cbr 210 ------- 0 1.0 3.0 67 98
+ 0.355 1 2 cbr 210 ------- 0 1.0 3.0 68 99
- 0.355 1 2 cbr 210 ------- 0 1.0 3.0 68 99
+ 0.355 0 2 cbr 500 ------- 0 0.0 3.0 31 100
- 0.355 0 2 cbr 500 ------- 0 0.0 3.0 31 100
r 0.356168 1 2 cbr 210 ------- 0 1.0 3.0 68 99
+ 0.356168 2 3 cbr 210 ------- 0 1.0 3.0 68 99
- 0.356168 2 3 cbr 210 ------- 0 1.0 3.0 68 99
r 0.3564 0 2 cbr 500 ------- 0 0.0 3.0 31 100
+ 0.3564 2 3 cbr 500 ------- 0 0.0 3.0 31 100
- 0.3564 2 3 cbr 500 ------- 0 0.0 3.0 31 100
r 0.357336 2 3 cbr 210 ------- 0 1.0 3.0 68 99
r 0.3578 2 3 cbr 500 ------- 0 0.0 3.0 31 100
+ 0.35875 1 2 cbr 210 ------- 0 1.0 3.0 69 101
- 0.35875 1 2 cbr 210 ------- 0 1.0 3.0 69 101
r 0.359918 1 2 cbr 210 ------- 0 1.0 3.0 69 101
+ 0.359918 2 3 cbr 210 ------- 0 1.0 3.0 69 101
- 0.359918 2 3 cbr 210 ------- 0 1.0 3.0 69 101
+ 0.36 0 2 cbr 500 ------- 0 0.0 3.0 32 102
- 0.36 0 2 cbr 500 ------- 0 0.0 3.0 32 102
r 0.361086 2 3 cbr 210 ------- 0 1.0 3.0 69 101
r 0.3614 0 2 cbr 500 ------- 0 0.0 3.0 32 102
+ 0.3614 2 3 cbr 500 ------- 0 0.0 3.0 32 102
- 0.3614 2 3 cbr 500 ------- 0 0.0 3.0 32 102
+ 0.3625 1 2 cbr 210 ------- 0 1.0 3.0 70 103
- 0.3625 1 2 cbr 210 ------- 0 1.0 3.0 70 103
r 0.3628 2 3 cbr 500 ------- 0 0.0 3.0 32 102
r 0.363668 1 2 cbr 210 ------- 0 1.0 3.0 70 103
+ 0.363668 2 3 cbr 210 ------- 0 1.0 3.0 70 103
- 0.363668 2 3 cbr 210 ------- 0 1.0 3.0 70 103
r 0.364836 2 3 cbr 210 ------- 0 1.0 3.0 70 103
+ 0.365 0 2 cbr 500 ------- 0 0.0 3.0 33 104
- 0.365 0 2 cbr 500 ------- 0 0.0 3.0 33 104
+ 0.36625 1 2 cbr 210 ------- 0 1.0 3.0 71 105
- 0.36625 1 2 cbr 210 ------- 0 1.0 3.0 71 105
r 0.3664 0 2 cbr 500 ------- 0 0.0 3.0 33 104
+ 0.3664 2 3 cbr 500 ------- 0 0.0 3.0 33 104
- 0.3664 2 3 cbr 500 ------- 0 0.0 3.0 33 104
r 0.367418 1 2 cbr 210 ------- 0 1.0 3.0 71 105
+ 0.367418 2 3 cbr 210 ------- 0 1.0 3.0 71 105
- 0.367418 2 3 cbr 210 ------- 0 1.0 3.0 71 105
r 0.3678 2 3 cbr 500 ------- 0 0.0 3.0 33 104
r 0.368586 2 3 cbr 210 ------- 0 1.0 3.0 71 105
+ 0.37 1 2 cbr 210 ------- 0 1.0 3.0 72 106
- 0.37 1 2 cbr 210 ------- 0 1.0 3.0 72 106
+ 0.37 0 2 cbr 500 ------- 0 0.0 3.0 34 107
- 0.37 0 2 cbr 500 ------- 0 0.0 3.0 34 107
r 0.371168 1 2 cbr 210 ------- 0 1.0 3.0 72 106
+ 0.371168 2 3 cbr 210 ------- 0 1.0 3.0 72 106
- 0.371168 2 3 cbr 210 ------- 0 1.0 3.0 72 106
r 0.3714 0 2 cbr 500 ------- 0 0.0 3.0 34 107
+ 0.3714 2 3 cbr 500 ------- 0 0.0 3.0 34 107
- 0.3714 2 3 cbr 500 ------- 0 0.0 3.0 34 107
r 0.372336 2 3 cbr 210 ------- 0 1.0 3.0 72 106
r 0.3728 2 3 cbr 500 ------- 0 0.0 3.0 34 107
+ 0.37375 1 2 cbr 210 ------- 0 1.0 3.0 73 108
- 0.37375 1 2 cbr 210 ------- 0 1.0 3.0 73 108
r 0.374918 1 2 cbr 210 ------- 0 1.0 3.0 73 108
+ 0.374918 2 3 cbr 210 ------- 0 1.0 3.0 73 108
- 0.374918 2 3 cbr 210 ------- 0 1.0 3.0 73 108
+ 0.375 0 2 cbr 500 ------- 0 0.0 3.0 35 109
- 0.375 0 2 cbr 500 ------- 0 0.0 3.0 35 109
r 0.376086 2 3 cbr 210 ------- 0 1.0 3.0 73 108
r 0.3764 0 2 cbr 500 ------- 0 0.0 3.0 35 109
+ 0.3764 2 3 cbr 500 ------- 0 0.0 3.0 35 109