n -t 0 -s 3 -S DLABEL -l "“destination”" -L ""
V -t * -v 1.0a5 -a 0
A -t * -n 1 -p 0 -o 0x7fffffff -c 30 -a 1
A -t * -h 1 -m 1073741823 -s 0
n -t * -a 0 -s 0 -S UP -v circle -c black -i black
n -t * -a 1 -s 1 -S UP -v circle -c black -i black
n -t * -a 2 -s 2 -S UP -v circle -c black -i black
n -t * -a 3 -s 3 -S UP -v circle -c black -i black
l -t * -s 0 -d 2 -S UP -r 10000000 -D 0.001 -c black
l -t * -s 1 -d 2 -S UP -r 10000000 -D 0.001 -c black
l -t * -s 2 -d 3 -S UP -r 10000000 -D 0.001 -c black
+ -t 0.1 -s 1 -d 2 -p cbr -e 210 -c 0 -i 0 -a 0 -x {1.0 3.0 0 ------- null}
- -t 0.1 -s 1 -d 2 -p cbr -e 210 -c 0 -i 0 -a 0 -x {1.0 3.0 0 ------- null}
h -t 0.1 -s 1 -d 2 -p cbr -e 210 -c 0 -i 0 -a 0 -x {1.0 3.0 -1 ------- null}
r -t 0.101168 -s 1 -d 2 -p cbr -e 210 -c 0 -i 0 -a 0 -x {1.0 3.0 0 ------- null}
+ -t 0.101168 -s 2 -d 3 -p cbr -e 210 -c 0 -i 0 -a 0 -x {1.0 3.0 0 ------- null}
- -t 0.101168 -s 2 -d 3 -p cbr -e 210 -c 0 -i 0 -a 0 -x {1.0 3.0 0 ------- null}
h -t 0.101168 -s 2 -d 3 -p cbr -e 210 -c 0 -i 0 -a 0 -x {1.0 3.0 -1 ------- null}
r -t 0.102336 -s 2 -d 3 -p cbr -e 210 -c 0 -i 0 -a 0 -x {1.0 3.0 0 ------- null}
+ -t 0.10375 -s 1 -d 2 -p cbr -e 210 -c 0 -i 1 -a 0 -x {1.0 3.0 1 ------- null}
- -t 0.10375 -s 1 -d 2 -p cbr -e 210 -c 0 -i 1 -a 0 -x {1.0 3.0 1 ------- null}
h -t 0.10375 -s 1 -d 2 -p cbr -e 210 -c 0 -i 1 -a 0 -x {1.0 3.0 -1 ------- null}
r -t 0.104918 -s 1 -d 2 -p cbr -e 210 -c 0 -i 1 -a 0 -x {1.0 3.0 1 ------- null}
+ -t 0.104918 -s 2 -d 3 -p cbr -e 210 -c 0 -i 1 -a 0 -x {1.0 3.0 1 ------- null}
- -t 0.104918 -s 2 -d 3 -p cbr -e 210 -c 0 -i 1 -a 0 -x {1.0 3.0 1 ------- null}
h -t 0.104918 -s 2 -d 3 -p cbr -e 210 -c 0 -i 1 -a 0 -x {1.0 3.0 -1 ------- null}
r -t 0.106086 -s 2 -d 3 -p cbr -e 210 -c 0 -i 1 -a 0 -x {1.0 3.0 1 ------- null}
+ -t 0.1075 -s 1 -d 2 -p cbr -e 210 -c 0 -i 2 -a 0 -x {1.0 3.0 2 ------- null}
- -t 0.1075 -s 1 -d 2 -p cbr -e 210 -c 0 -i 2 -a 0 -x {1.0 3.0 2 ------- null}
h -t 0.1075 -s 1 -d 2 -p cbr -e 210 -c 0 -i 2 -a 0 -x {1.0 3.0 -1 ------- null}
r -t 0.108668 -s 1 -d 2 -p cbr -e 210 -c 0 -i 2 -a 0 -x {1.0 3.0 2 ------- null}
+ -t 0.108668 -s 2 -d 3 -p cbr -e 210 -c 0 -i 2 -a 0 -x {1.0 3.0 2 ------- null}
- -t 0.108668 -s 2 -d 3 -p cbr -e 210 -c 0 -i 2 -a 0 -x {1.0 3.0 2 ------- null}
h -t 0.108668 -s 2 -d 3 -p cbr -e 210 -c 0 -i 2 -a 0 -x {1.0 3.0 -1 ------- null}
r -t 0.109836 -s 2 -d 3 -p cbr -e 210 -c 0 -i 2 -a 0 -x {1.0 3.0 2 ------- null}
+ -t 0.11125 -s 1 -d 2 -p cbr -e 210 -c 0 -i 3 -a 0 -x {1.0 3.0 3 ------- null}
- -t 0.11125 -s 1 -d 2 -p cbr -e 210 -c 0 -i 3 -a 0 -x {1.0 3.0 3 ------- null}
h -t 0.11125 -s 1 -d 2 -p cbr -e 210 -c 0 -i 3 -a 0 -x {1.0 3.0 -1 ------- null}
r -t 0.112418 -s 1 -d 2 -p cbr -e 210 -c 0 -i 3 -a 0 -x {1.0 3.0 3 ------- null}
+ -t 0.112418 -s 2 -d 3 -p cbr -e 210 -c 0 -i 3 -a 0 -x {1.0 3.0 3 ------- null}
- -t 0.112418 -s 2 -d 3 -p cbr -e 210 -c 0 -i 3 -a 0 -x {1.0 3.0 3 ------- null}
h -t 0.112418 -s 2 -d 3 -p cbr -e 210 -c 0 -i 3 -a 0 -x {1.0 3.0 -1 ------- null}
r -t 0.113586 -s 2 -d 3 -p cbr -e 210 -c 0 -i 3 -a 0 -x {1.0 3.0 3 ------- null}
+ -t 0.115 -s 1 -d 2 -p cbr -e 210 -c 0 -i 4 -a 0 -x {1.0 3.0 4 ------- null}
- -t 0.115 -s 1 -d 2 -p cbr -e 210 -c 0 -i 4 -a 0 -x {1.0 3.0 4 ------- null}
h -t 0.115 -s 1 -d 2 -p cbr -e 210 -c 0 -i 4 -a 0 -x {1.0 3.0 -1 ------- null}
r -t 0.116168 -s 1 -d 2 -p cbr -e 210 -c 0 -i 4 -a 0 -x {1.0 3.0 4 ------- null}
+ -t 0.116168 -s 2 -d 3 -p cbr -e 210 -c 0 -i 4 -a 0 -x {1.0 3.0 4 ------- null}
- -t 0.116168 -s 2 -d 3 -p cbr -e 210 -c 0 -i 4 -a 0 -x {1.0 3.0 4 ------- null}
h -t 0.116168 -s 2 -d 3 -p cbr -e 210 -c 0 -i 4 -a 0 -x {1.0 3.0 -1 ------- null}
r -t 0.117336 -s 2 -d 3 -p cbr -e 210 -c 0 -i 4 -a 0 -x {1.0 3.0 4 ------- null}
+ -t 0.11875 -s 1 -d 2 -p cbr -e 210 -c 0 -i 5 -a 0 -x {1.0 3.0 5 ------- null}
- -t 0.11875 -s 1 -d 2 -p cbr -e 210 -c 0 -i 5 -a 0 -x {1.0 3.0 5 ------- null}
h -t 0.11875 -s 1 -d 2 -p cbr -e 210 -c 0 -i 5 -a 0 -x {1.0 3.0 -1 ------- null}
r -t 0.119918 -s 1 -d 2 -p cbr -e 210 -c 0 -i 5 -a 0 -x {1.0 3.0 5 ------- null}
+ -t 0.119918 -s 2 -d 3 -p cbr -e 210 -c 0 -i 5 -a 0 -x {1.0 3.0 5 ------- null}
- -t 0.119918 -s 2 -d 3 -p cbr -e 210 -c 0 -i 5 -a 0 -x {1.0 3.0 5 ------- null}
h -t 0.119918 -s 2 -d 3 -p cbr -e 210 -c 0 -i 5 -a 0 -x {1.0 3.0 -1 ------- null}
r -t 0.121086 -s 2 -d 3 -p cbr -e 210 -c 0 -i 5 -a 0 -x {1.0 3.0 5 ------- null}
+ -t 0.1225 -s 1 -d 2 -p cbr -e 210 -c 0 -i 6 -a 0 -x {1.0 3.0 6 ------- null}
- -t 0.1225 -s 1 -d 2 -p cbr -e 210 -c 0 -i 6 -a 0 -x {1.0 3.0 6 ------- null}
h -t 0.1225 -s 1 -d 2 -p cbr -e 210 -c 0 -i 6 -a 0 -x {1.0 3.0 -1 ------- null}
r -t 0.123668 -s 1 -d 2 -p cbr -e 210 -c 0 -i 6 -a 0 -x {1.0 3.0 6 ------- null}
+ -t 0.123668 -s 2 -d 3 -p cbr -e 210 -c 0 -i 6 -a 0 -x {1.0 3.0 6 ------- null}
- -t 0.123668 -s 2 -d 3 -p cbr -e 210 -c 0 -i 6 -a 0 -x {1.0 3.0 6 ------- null}
h -t 0.123668 -s 2 -d 3 -p cbr -e 210 -c 0 -i 6 -a 0 -x {1.0 3.0 -1 ------- null}
r -t 0.124836 -s 2 -d 3 -p cbr -e 210 -c 0 -i 6 -a 0 -x {1.0 3.0 6 ------- null}
+ -t 0.12625 -s 1 -d 2 -p cbr -e 210 -c 0 -i 7 -a 0 -x {1.0 3.0 7 ------- null}
- -t 0.12625 -s 1 -d 2 -p cbr -e 210 -c 0 -i 7 -a 0 -x {1.0 3.0 7 ------- null}
h -t 0.12625 -s 1 -d 2 -p cbr -e 210 -c 0 -i 7 -a 0 -x {1.0 3.0 -1 ------- null}
r -t 0.127418 -s 1 -d 2 -p cbr -e 210 -c 0 -i 7 -a 0 -x {1.0 3.0 7 ------- null}
+ -t 0.127418 -s 2 -d 3 -p cbr -e 210 -c 0 -i 7 -a 0 -x {1.0 3.0 7 ------- null}
- -t 0.127418 -s 2 -d 3 -p cbr -e 210 -c 0 -i 7 -a 0 -x {1.0 3.0 7 ------- null}
h -t 0.127418 -s 2 -d 3 -p cbr -e 210 -c 0 -i 7 -a 0 -x {1.0 3.0 -1 ------- null}
r -t 0.128586 -s 2 -d 3 -p cbr -e 210 -c 0 -i 7 -a 0 -x {1.0 3.0 7 ------- null}
+ -t 0.13 -s 1 -d 2 -p cbr -e 210 -c 0 -i 8 -a 0 -x {1.0 3.0 8 ------- null}
- -t 0.13 -s 1 -d 2 -p cbr -e 210 -c 0 -i 8 -a 0 -x {1.0 3.0 8 ------- null}
h -t 0.13 -s 1 -d 2 -p cbr -e 210 -c 0 -i 8 -a 0 -x {1.0 3.0 -1 ------- null}
r -t 0.131168 -s 1 -d 2 -p cbr -e 210 -c 0 -i 8 -a 0 -x {1.0 3.0 8 ------- null}
+ -t 0.131168 -s 2 -d 3 -p cbr -e 210 -c 0 -i 8 -a 0 -x {1.0 3.0 8 ------- null}
- -t 0.131168 -s 2 -d 3 -p cbr -e 210 -c 0 -i 8 -a 0 -x {1.0 3.0 8 ------- null}
h -t 0.131168 -s 2 -d 3 -p cbr -e 210 -c 0 -i 8 -a 0 -x {1.0 3.0 -1 ------- null}
r -t 0.132336 -s 2 -d 3 -p cbr -e 210 -c 0 -i 8 -a 0 -x {1.0 3.0 8 ------- null}
+ -t 0.13375 -s 1 -d 2 -p cbr -e 210 -c 0 -i 9 -a 0 -x {1.0 3.0 9 ------- null}
- -t 0.13375 -s 1 -d 2 -p cbr -e 210 -c 0 -i 9 -a 0 -x {1.0 3.0 9 ------- null}
h -t 0.13375 -s 1 -d 2 -p cbr -e 210 -c 0 -i 9 -a 0 -x {1.0 3.0 -1 ------- null}
r -t 0.134918 -s 1 -d 2 -p cbr -e 210 -c 0 -i 9 -a 0 -x {1.0 3.0 9 ------- null}
+ -t 0.134918 -s 2 -d 3 -p cbr -e 210 -c 0 -i 9 -a 0 -x {1.0 3.0 9 ------- null}
- -t 0.134918 -s 2 -d 3 -p cbr -e 210 -c 0 -i 9 -a 0 -x {1.0 3.0 9 ------- null}
h -t 0.134918 -s 2 -d 3 -p cbr -e 210 -c 0 -i 9 -a 0 -x {1.0 3.0 -1 ------- null}
r -t 0.136086 -s 2 -d 3 -p cbr -e 210 -c 0 -i 9 -a 0 -x {1.0 3.0 9 ------- null}
+ -t 0.1375 -s 1 -d 2 -p cbr -e 210 -c 0 -i 10 -a 0 -x {1.0 3.0 10 ------- null}
- -t 0.1375 -s 1 -d 2 -p cbr -e 210 -c 0 -i 10 -a 0 -x {1.0 3.0 10 ------- null}
h -t 0.1375 -s 1 -d 2 -p cbr -e 210 -c 0 -i 10 -a 0 -x {1.0 3.0 -1 ------- null}
r -t 0.138668 -s 1 -d 2 -p cbr -e 210 -c 0 -i 10 -a 0 -x {1.0 3.0 10 ------- null}
+ -t 0.138668 -s 2 -d 3 -p cbr -e 210 -c 0 -i 10 -a 0 -x {1.0 3.0 10 ------- null}
- -t 0.138668 -s 2 -d 3 -p cbr -e 210 -c 0 -i 10 -a 0 -x {1.0 3.0 10 ------- null}
h -t 0.138668 -s 2 -d 3 -p cbr -e 210 -c 0 -i 10 -a 0 -x {1.0 3.0 -1 ------- null}
r -t 0.139836 -s 2 -d 3 -p cbr -e 210 -c 0 -i 10 -a 0 -x {1.0 3.0 10 ------- null}
+ -t 0.14125 -s 1 -d 2 -p cbr -e 210 -c 0 -i 11 -a 0 -x {1.0 3.0 11 ------- null}
- -t 0.14125 -s 1 -d 2 -p cbr -e 210 -c 0 -i 11 -a 0 -x {1.0 3.0 11 ------- null}
h -t 0.14125 -s 1 -d 2 -p cbr -e 210 -c 0 -i 11 -a 0 -x {1.0 3.0 -1 ------- null}
r -t 0.142418 -s 1 -d 2 -p cbr -e 210 -c 0 -i 11 -a 0 -x {1.0 3.0 11 ------- null}
+ -t 0.142418 -s 2 -d 3 -p cbr -e 210 -c 0 -i 11 -a 0 -x {1.0 3.0 11 ------- null}
- -t 0.142418 -s 2 -d 3 -p cbr -e 210 -c 0 -i 11 -a 0 -x {1.0 3.0 11 ------- null}
h -t 0.142418 -s 2 -d 3 -p cbr -e 210 -c 0 -i 11 -a 0 -x {1.0 3.0 -1 ------- null}
r -t 0.143586 -s 2 -d 3 -p cbr -e 210 -c 0 -i 11 -a 0 -x {1.0 3.0 11 ------- null}
+ -t 0.145 -s 1 -d 2 -p cbr -e 210 -c 0 -i 12 -a 0 -x {1.0 3.0 12 ------- null}
- -t 0.145 -s 1 -d 2 -p cbr -e 210 -c 0 -i 12 -a 0 -x {1.0 3.0 12 ------- null}
h -t 0.145 -s 1 -d 2 -p cbr -e 210 -c 0 -i 12 -a 0 -x {1.0 3.0 -1 ------- null}
r -t 0.146168 -s 1 -d 2 -p cbr -e 210 -c 0 -i 12 -a 0 -x {1.0 3.0 12 ------- null}
+ -t 0.146168 -s 2 -d 3 -p cbr -e 210 -c 0 -i 12 -a 0 -x {1.0 3.0 12 ------- null}
- -t 0.146168 -s 2 -d 3 -p cbr -e 210 -c 0 -i 12 -a 0 -x {1.0 3.0 12 ------- null}
h -t 0.146168 -s 2 -d 3 -p cbr -e 210 -c 0 -i 12 -a 0 -x {1.0 3.0 -1 ------- null}
r -t 0.147336 -s 2 -d 3 -p cbr -e 210 -c 0 -i 12 -a 0 -x {1.0 3.0 12 ------- null}
+ -t 0.14875 -s 1 -d 2 -p cbr -e 210 -c 0 -i 13 -a 0 -x {1.0 3.0 13 ------- null}
- -t 0.14875 -s 1 -d 2 -p cbr -e 210 -c 0 -i 13 -a 0 -x {1.0 3.0 13 ------- null}
h -t 0.14875 -s 1 -d 2 -p cbr -e 210 -c 0 -i 13 -a 0 -x {1.0 3.0 -1 ------- null}
r -t 0.149918 -s 1 -d 2 -p cbr -e 210 -c 0 -i 13 -a 0 -x {1.0 3.0 13 ------- null}
+ -t 0.149918 -s 2 -d 3 -p cbr -e 210 -c 0 -i 13 -a 0 -x {1.0 3.0 13 ------- null}
- -t 0.149918 -s 2 -d 3 -p cbr -e 210 -c 0 -i 13 -a 0 -x {1.0 3.0 13 ------- null}
h -t 0.149918 -s 2 -d 3 -p cbr -e 210 -c 0 -i 13 -a 0 -x {1.0 3.0 -1 ------- null}
r -t 0.151086 -s 2 -d 3 -p cbr -e 210 -c 0 -i 13 -a 0 -x {1.0 3.0 13 ------- null}
+ -t 0.1525 -s 1 -d 2 -p cbr -e 210 -c 0 -i 14 -a 0 -x {1.0 3.0 14 ------- null}
- -t 0.1525 -s 1 -d 2 -p cbr -e 210 -c 0 -i 14 -a 0 -x {1.0 3.0 14 ------- null}
h -t 0.1525 -s 1 -d 2 -p cbr -e 210 -c 0 -i 14 -a 0 -x {1.0 3.0 -1 ------- null}
r -t 0.153668 -s 1 -d 2 -p cbr -e 210 -c 0 -i 14 -a 0 -x {1.0 3.0 14 ------- null}
+ -t 0.153668 -s 2 -d 3 -p cbr -e 210 -c 0 -i 14 -a 0 -x {1.0 3.0 14 ------- null}
- -t 0.153668 -s 2 -d 3 -p cbr -e 210 -c 0 -i 14 -a 0 -x {1.0 3.0 14 ------- null}
h -t 0.153668 -s 2 -d 3 -p cbr -e 210 -c 0 -i 14 -a 0 -x {1.0 3.0 -1 ------- null}
r -t 0.154836 -s 2 -d 3 -p cbr -e 210 -c 0 -i 14 -a 0 -x {1.0 3.0 14 ------- null}
+ -t 0.15625 -s 1 -d 2 -p cbr -e 210 -c 0 -i 15 -a 0 -x {1.0 3.0 15 ------- null}
- -t 0.15625 -s 1 -d 2 -p cbr -e 210 -c 0 -i 15 -a 0 -x {1.0 3.0 15 ------- null}
h -t 0.15625 -s 1 -d 2 -p cbr -e 210 -c 0 -i 15 -a 0 -x {1.0 3.0 -1 ------- null}
r -t 0.157418 -s 1 -d 2 -p cbr -e 210 -c 0 -i 15 -a 0 -x {1.0 3.0 15 ------- null}
+ -t 0.157418 -s 2 -d 3 -p cbr -e 210 -c 0 -i 15 -a 0 -x {1.0 3.0 15 ------- null}
- -t 0.157418 -s 2 -d 3 -p cbr -e 210 -c 0 -i 15 -a 0 -x {1.0 3.0 15 ------- null}
h -t 0.157418 -s 2 -d 3 -p cbr -e 210 -c 0 -i 15 -a 0 -x {1.0 3.0 -1 ------- null}
r -t 0.158586 -s 2 -d 3 -p cbr -e 210 -c 0 -i 15 -a 0 -x {1.0 3.0 15 ------- null}
+ -t 0.16 -s 1 -d 2 -p cbr -e 210 -c 0 -i 16 -a 0 -x {1.0 3.0 16 ------- null}
- -t 0.16 -s 1 -d 2 -p cbr -e 210 -c 0 -i 16 -a 0 -x {1.0 3.0 16 ------- null}
h -t 0.16 -s 1 -d 2 -p cbr -e 210 -c 0 -i 16 -a 0 -x {1.0 3.0 -1 ------- null}
r -t 0.161168 -s 1 -d 2 -p cbr -e 210 -c 0 -i 16 -a 0 -x {1.0 3.0 16 ------- null}
+ -t 0.161168 -s 2 -d 3 -p cbr -e 210 -c 0 -i 16 -a 0 -x {1.0 3.0 16 ------- null}
- -t 0.161168 -s 2 -d 3 -p cbr -e 210 -c 0 -i 16 -a 0 -x {1.0 3.0 16 ------- null}
h -t 0.161168 -s 2 -d 3 -p cbr -e 210 -c 0 -i 16 -a 0 -x {1.0 3.0 -1 ------- null}
r -t 0.162336 -s 2 -d 3 -p cbr -e 210 -c 0 -i 16 -a 0 -x {1.0 3.0 16 ------- null}
+ -t 0.16375 -s 1 -d 2 -p cbr -e 210 -c 0 -i 17 -a 0 -x {1.0 3.0 17 ------- null}
- -t 0.16375 -s 1 -d 2 -p cbr -e 210 -c 0 -i 17 -a 0 -x {1.0 3.0 17 ------- null}
h -t 0.16375 -s 1 -d 2 -p cbr -e 210 -c 0 -i 17 -a 0 -x {1.0 3.0 -1 ------- null}
r -t 0.164918 -s 1 -d 2 -p cbr -e 210 -c 0 -i 17 -a 0 -x {1.0 3.0 17 ------- null}
+ -t 0.164918 -s 2 -d 3 -p cbr -e 210 -c 0 -i 17 -a 0 -x {1.0 3.0 17 ------- null}
- -t 0.164918 -s 2 -d 3 -p cbr -e 210 -c 0 -i 17 -a 0 -x {1.0 3.0 17 ------- null}
h -t 0.164918 -s 2 -d 3 -p cbr -e 210 -c 0 -i 17 -a 0 -x {1.0 3.0 -1 ------- null}
r -t 0.166086 -s 2 -d 3 -p cbr -e 210 -c 0 -i 17 -a 0 -x {1.0 3.0 17 ------- null}
+ -t 0.1675 -s 1 -d 2 -p cbr -e 210 -c 0 -i 18 -a 0 -x {1.0 3.0 18 ------- null}
- -t 0.1675 -s 1 -d 2 -p cbr -e 210 -c 0 -i 18 -a 0 -x {1.0 3.0 18 ------- null}
h -t 0.1675 -s 1 -d 2 -p cbr -e 210 -c 0 -i 18 -a 0 -x {1.0 3.0 -1 ------- null}
r -t 0.168668 -s 1 -d 2 -p cbr -e 210 -c 0 -i 18 -a 0 -x {1.0 3.0 18 ------- null}
+ -t 0.168668 -s 2 -d 3 -p cbr -e 210 -c 0 -i 18 -a 0 -x {1.0 3.0 18 ------- null}
- -t 0.168668 -s 2 -d 3 -p cbr -e 210 -c 0 -i 18 -a 0 -x {1.0 3.0 18 ------- null}
h -t 0.168668 -s 2 -d 3 -p cbr -e 210 -c 0 -i 18 -a 0 -x {1.0 3.0 -1 ------- null}
r -t 0.169836 -s 2 -d 3 -p cbr -e 210 -c 0 -i 18 -a 0 -x {1.0 3.0 18 ------- null}
+ -t 0.17125 -s 1 -d 2 -p cbr -e 210 -c 0 -i 19 -a 0 -x {1.0 3.0 19 ------- null}
- -t 0.17125 -s 1 -d 2 -p cbr -e 210 -c 0 -i 19 -a 0 -x {1.0 3.0 19 ------- null}
h -t 0.17125 -s 1 -d 2 -p cbr -e 210 -c 0 -i 19 -a 0 -x {1.0 3.0 -1 ------- null}
r -t 0.172418 -s 1 -d 2 -p cbr -e 210 -c 0 -i 19 -a 0 -x {1.0 3.0 19 ------- null}
+ -t 0.172418 -s 2 -d 3 -p cbr -e 210 -c 0 -i 19 -a 0 -x {1.0 3.0 19 ------- null}
- -t 0.172418 -s 2 -d 3 -p cbr -e 210 -c 0 -i 19 -a 0 -x {1.0 3.0 19 ------- null}
h -t 0.172418 -s 2 -d 3 -p cbr -e 210 -c 0 -i 19 -a 0 -x {1.0 3.0 -1 ------- null}
r -t 0.173586 -s 2 -d 3 -p cbr -e 210 -c 0 -i 19 -a 0 -x {1.0 3.0 19 ------- null}
+ -t 0.175 -s 1 -d 2 -p cbr -e 210 -c 0 -i 20 -a 0 -x {1.0 3.0 20 ------- null}
- -t 0.175 -s 1 -d 2 -p cbr -e 210 -c 0 -i 20 -a 0 -x {1.0 3.0 20 ------- null}
h -t 0.175 -s 1 -d 2 -p cbr -e 210 -c 0 -i 20 -a 0 -x {1.0 3.0 -1 ------- null}
r -t 0.176168 -s 1 -d 2 -p cbr -e 210 -c 0 -i 20 -a 0 -x {1.0 3.0 20 ------- null}
+ -t 0.176168 -s 2 -d 3 -p cbr -e 210 -c 0 -i 20 -a 0 -x {1.0 3.0 20 ------- null}
- -t 0.176168 -s 2 -d 3 -p cbr -e 210 -c 0 -i 20 -a 0 -x {1.0 3.0 20 ------- null}
h -t 0.176168 -s 2 -d 3 -p cbr -e 210 -c 0 -i 20 -a 0 -x {1.0 3.0 -1 ------- null}
r -t 0.177336 -s 2 -d 3 -p cbr -e 210 -c 0 -i 20 -a 0 -x {1.0 3.0 20 ------- null}
+ -t 0.17875 -s 1 -d 2 -p cbr -e 210 -c 0 -i 21 -a 0 -x {1.0 3.0 21 ------- null}
- -t 0.17875 -s 1 -d 2 -p cbr -e 210 -c 0 -i 21 -a 0 -x {1.0 3.0 21 ------- null}
h -t 0.17875 -s 1 -d 2 -p cbr -e 210 -c 0 -i 21 -a 0 -x {1.0 3.0 -1 ------- null}
r -t 0.179918 -s 1 -d 2 -p cbr -e 210 -c 0 -i 21 -a 0 -x {1.0 3.0 21 ------- null}
+ -t 0.179918 -s 2 -d 3 -p cbr -e 210 -c 0 -i 21 -a 0 -x {1.0 3.0 21 ------- null}
- -t 0.179918 -s 2 -d 3 -p cbr -e 210 -c 0 -i 21 -a 0 -x {1.0 3.0 21 ------- null}
h -t 0.179918 -s 2 -d 3 -p cbr -e 210 -c 0 -i 21 -a 0 -x {1.0 3.0 -1 ------- null}
r -t 0.181086 -s 2 -d 3 -p cbr -e 210 -c 0 -i 21 -a 0 -x {1.0 3.0 21 ------- null}
+ -t 0.1825 -s 1 -d 2 -p cbr -e 210 -c 0 -i 22 -a 0 -x {1.0 3.0 22 ------- null}
- -t 0.1825 -s 1 -d 2 -p cbr -e 210 -c 0 -i 22 -a 0 -x {1.0 3.0 22 ------- null}
h -t 0.1825 -s 1 -d 2 -p cbr -e 210 -c 0 -i 22 -a 0 -x {1.0 3.0 -1 ------- null}
r -t 0.183668 -s 1 -d 2 -p cbr -e 210 -c 0 -i 22 -a 0 -x {1.0 3.0 22 ------- null}
+ -t 0.183668 -s 2 -d 3 -p cbr -e 210 -c 0 -i 22 -a 0 -x {1.0 3.0 22 ------- null}
- -t 0.183668 -s 2 -d 3 -p cbr -e 210 -c 0 -i 22 -a 0 -x {1.0 3.0 22 ------- null}
h -t 0.183668 -s 2 -d 3 -p cbr -e 210 -c 0 -i 22 -a 0 -x {1.0 3.0 -1 ------- null}
r -t 0.184836 -s 2 -d 3 -p cbr -e 210 -c 0 -i 22 -a 0 -x {1.0 3.0 22 ------- null}
+ -t 0.18625 -s 1 -d 2 -p cbr -e 210 -c 0 -i 23 -a 0 -x {1.0 3.0 23 ------- null}
- -t 0.18625 -s 1 -d 2 -p cbr -e 210 -c 0 -i 23 -a 0 -x {1.0 3.0 23 ------- null}
h -t 0.18625 -s 1 -d 2 -p cbr -e 210 -c 0 -i 23 -a 0 -x {1.0 3.0 -1 ------- null}
r -t 0.187418 -s 1 -d 2 -p cbr -e 210 -c 0 -i 23 -a 0 -x {1.0 3.0 23 ------- null}
+ -t 0.187418 -s 2 -d 3 -p cbr -e 210 -c 0 -i 23 -a 0 -x {1.0 3.0 23 ------- null}
- -t 0.187418 -s 2 -d 3 -p cbr -e 210 -c 0 -i 23 -a 0 -x {1.0 3.0 23 ------- null}
h -t 0.187418 -s 2 -d 3 -p cbr -e 210 -c 0 -i 23 -a 0 -x {1.0 3.0 -1 ------- null}
r -t 0.188586 -s 2 -d 3 -p cbr -e 210 -c 0 -i 23 -a 0 -x {1.0 3.0 23 ------- null}
+ -t 0.19 -s 1 -d 2 -p cbr -e 210 -c 0 -i 24 -a 0 -x {1.0 3.0 24 ------- null}
- -t 0.19 -s 1 -d 2 -p cbr -e 210 -c 0 -i 24 -a 0 -x {1.0 3.0 24 ------- null}
h -t 0.19 -s 1 -d 2 -p cbr -e 210 -c 0 -i 24 -a 0 -x {1.0 3.0 -1 ------- null}
r -t 0.191168 -s 1 -d 2 -p cbr -e 210 -c 0 -i 24 -a 0 -x {1.0 3.0 24 ------- null}
+ -t 0.191168 -s 2 -d 3 -p cbr -e 210 -c 0 -i 24 -a 0 -x {1.0 3.0 24 ------- null}
- -t 0.191168 -s 2 -d 3 -p cbr -e 210 -c 0 -i 24 -a 0 -x {1.0 3.0 24 ------- null}
h -t 0.191168 -s 2 -d 3 -p cbr -e 210 -c 0 -i 24 -a 0 -x {1.0 3.0 -1 ------- null}
r -t 0.192336 -s 2 -d 3 -p cbr -e 210 -c 0 -i 24 -a 0 -x {1.0 3.0 24 ------- null}
+ -t 0.19375 -s 1 -d 2 -p cbr -e 210 -c 0 -i 25 -a 0 -x {1.0 3.0 25 ------- null}
- -t 0.19375 -s 1 -d 2 -p cbr -e 210 -c 0 -i 25 -a 0 -x {1.0 3.0 25 ------- null}
h -t 0.19375 -s 1 -d 2 -p cbr -e 210 -c 0 -i 25 -a 0 -x {1.0 3.0 -1 ------- null}
r -t 0.194918 -s 1 -d 2 -p cbr -e 210 -c 0 -i 25 -a 0 -x {1.0 3.0 25 ------- null}
+ -t 0.194918 -s 2 -d 3 -p cbr -e 210 -c 0 -i 25 -a 0 -x {1.0 3.0 25 ------- null}
- -t 0.194918 -s 2 -d 3 -p cbr -e 210 -c 0 -i 25 -a 0 -x {1.0 3.0 25 ------- null}
h -t 0.194918 -s 2 -d 3 -p cbr -e 210 -c 0 -i 25 -a 0 -x {1.0 3.0 -1 ------- null}
r -t 0.196086 -s 2 -d 3 -p cbr -e 210 -c 0 -i 25 -a 0 -x {1.0 3.0 25 ------- null}
+ -t 0.1975 -s 1 -d 2 -p cbr -e 210 -c 0 -i 26 -a 0 -x {1.0 3.0 26 ------- null}
- -t 0.1975 -s 1 -d 2 -p cbr -e 210 -c 0 -i 26 -a 0 -x {1.0 3.0 26 ------- null}
h -t 0.1975 -s 1 -d 2 -p cbr -e 210 -c 0 -i 26 -a 0 -x {1.0 3.0 -1 ------- null}
r -t 0.198668 -s 1 -d 2 -p cbr -e 210 -c 0 -i 26 -a 0 -x {1.0 3.0 26 ------- null}
+ -t 0.198668 -s 2 -d 3 -p cbr -e 210 -c 0 -i 26 -a 0 -x {1.0 3.0 26 ------- null}
- -t 0.198668 -s 2 -d 3 -p cbr -e 210 -c 0 -i 26 -a 0 -x {1.0 3.0 26 ------- null}
h -t 0.198668 -s 2 -d 3 -p cbr -e 210 -c 0 -i 26 -a 0 -x {1.0 3.0 -1 ------- null}
r -t 0.199836 -s 2 -d 3 -p cbr -e 210 -c 0 -i 26 -a 0 -x {1.0 3.0 26 ------- null}
+ -t 0.2 -s 0 -d 2 -p cbr -e 500 -c 0 -i 27 -a 0 -x {0.0 3.0 0 ------- null}
- -t 0.2 -s 0 -d 2 -p cbr -e 500 -c 0 -i 27 -a 0 -x {0.0 3.0 0 ------- null}
h -t 0.2 -s 0 -d 2 -p cbr -e 500 -c 0 -i 27 -a 0 -x {0.0 3.0 -1 ------- null}
+ -t 0.20125 -s 1 -d 2 -p cbr -e 210 -c 0 -i 28 -a 0 -x {1.0 3.0 27 ------- null}
- -t 0.20125 -s 1 -d 2 -p cbr -e 210 -c 0 -i 28 -a 0 -x {1.0 3.0 27 ------- null}
h -t 0.20125 -s 1 -d 2 -p cbr -e 210 -c 0 -i 28 -a 0 -x {1.0 3.0 -1 ------- null}
r -t 0.2014 -s 0 -d 2 -p cbr -e 500 -c 0 -i 27 -a 0 -x {0.0 3.0 0 ------- null}
+ -t 0.2014 -s 2 -d 3 -p cbr -e 500 -c 0 -i 27 -a 0 -x {0.0 3.0 0 ------- null}
- -t 0.2014 -s 2 -d 3 -p cbr -e 500 -c 0 -i 27 -a 0 -x {0.0 3.0 0 ------- null}
h -t 0.2014 -s 2 -d 3 -p cbr -e 500 -c 0 -i 27 -a 0 -x {0.0 3.0 -1 ------- null}
r -t 0.202418 -s 1 -d 2 -p cbr -e 210 -c 0 -i 28 -a 0 -x {1.0 3.0 27 ------- null}
+ -t 0.202418 -s 2 -d 3 -p cbr -e 210 -c 0 -i 28 -a 0 -x {1.0 3.0 27 ------- null}
- -t 0.202418 -s 2 -d 3 -p cbr -e 210 -c 0 -i 28 -a 0 -x {1.0 3.0 27 ------- null}
h -t 0.202418 -s 2 -d 3 -p cbr -e 210 -c 0 -i 28 -a 0 -x {1.0 3.0 -1 ------- null}
r -t 0.2028 -s 2 -d 3 -p cbr -e 500 -c 0 -i 27 -a 0 -x {0.0 3.0 0 ------- null}
r -t 0.203586 -s 2 -d 3 -p cbr -e 210 -c 0 -i 28 -a 0 -x {1.0 3.0 27 ------- null}
+ -t 0.205 -s 0 -d 2 -p cbr -e 500 -c 0 -i 29 -a 0 -x {0.0 3.0 1 ------- null}
- -t 0.205 -s 0 -d 2 -p cbr -e 500 -c 0 -i 29 -a 0 -x {0.0 3.0 1 ------- null}
h -t 0.205 -s 0 -d 2 -p cbr -e 500 -c 0 -i 29 -a 0 -x {0.0 3.0 -1 ------- null}
+ -t 0.205 -s 1 -d 2 -p cbr -e 210 -c 0 -i 30 -a 0 -x {1.0 3.0 28 ------- null}
- -t 0.205 -s 1 -d 2 -p cbr -e 210 -c 0 -i 30 -a 0 -x {1.0 3.0 28 ------- null}
h -t 0.205 -s 1 -d 2 -p cbr -e 210 -c 0 -i 30 -a 0 -x {1.0 3.0 -1 ------- null}
r -t 0.206168 -s 1 -d 2 -p cbr -e 210 -c 0 -i 30 -a 0 -x {1.0 3.0 28 ------- null}
+ -t 0.206168 -s 2 -d 3 -p cbr -e 210 -c 0 -i 30 -a 0 -x {1.0 3.0 28 ------- null}
- -t 0.206168 -s 2 -d 3 -p cbr -e 210 -c 0 -i 30 -a 0 -x {1.0 3.0 28 ------- null}
h -t 0.206168 -s 2 -d 3 -p cbr -e 210 -c 0 -i 30 -a 0 -x {1.0 3.0 -1 ------- null}
r -t 0.2064 -s 0 -d 2 -p cbr -e 500 -c 0 -i 29 -a 0 -x {0.0 3.0 1 ------- null}
+ -t 0.2064 -s 2 -d 3 -p cbr -e 500 -c 0 -i 29 -a 0 -x {0.0 3.0 1 ------- null}
- -t 0.2064 -s 2 -d 3 -p cbr -e 500 -c 0 -i 29 -a 0 -x {0.0 3.0 1 ------- null}
h -t 0.2064 -s 2 -d 3 -p cbr -e 500 -c 0 -i 29 -a 0 -x {0.0 3.0 -1 ------- null}
r -t 0.207336 -s 2 -d 3 -p cbr -e 210 -c 0 -i 30 -a 0 -x {1.0 3.0 28 ------- null}
r -t 0.2078 -s 2 -d 3 -p cbr -e 500 -c 0 -i 29 -a 0 -x {0.0 3.0 1 ------- null}
+ -t 0.20875 -s 1 -d 2 -p cbr -e 210 -c 0 -i 31 -a 0 -x {1.0 3.0 29 ------- null}
- -t 0.20875 -s 1 -d 2 -p cbr -e 210 -c 0 -i 31 -a 0 -x {1.0 3.0 29 ------- null}
h -t 0.20875 -s 1 -d 2 -p cbr -e 210 -c 0 -i 31 -a 0 -x {1.0 3.0 -1 ------- null}
r -t 0.209918 -s 1 -d 2 -p cbr -e 210 -c 0 -i 31 -a 0 -x {1.0 3.0 29 ------- null}
+ -t 0.209918 -s 2 -d 3 -p cbr -e 210 -c 0 -i 31 -a 0 -x {1.0 3.0 29 ------- null}
- -t 0.209918 -s 2 -d 3 -p cbr -e 210 -c 0 -i 31 -a 0 -x {1.0 3.0 29 ------- null}
h -t 0.209918 -s 2 -d 3 -p cbr -e 210 -c 0 -i 31 -a 0 -x {1.0 3.0 -1 ------- null}
+ -t 0.21 -s 0 -d 2 -p cbr -e 500 -c 0 -i 32 -a 0 -x {0.0 3.0 2 ------- null}
- -t 0.21 -s 0 -d 2 -p cbr -e 500 -c 0 -i 32 -a 0 -x {0.0 3.0 2 ------- null}
h -t 0.21 -s 0 -d 2 -p cbr -e 500 -c 0 -i 32 -a 0 -x {0.0 3.0 -1 ------- null}
r -t 0.211086 -s 2 -d 3 -p cbr -e 210 -c 0 -i 31 -a 0 -x {1.0 3.0 29 ------- null}
r -t 0.2114 -s 0 -d 2 -p cbr -e 500 -c 0 -i 32 -a 0 -x {0.0 3.0 2 ------- null}
+ -t 0.2114 -s 2 -d 3 -p cbr -e 500 -c 0 -i 32 -a 0 -x {0.0 3.0 2 ------- null}
- -t 0.2114 -s 2 -d 3 -p cbr -e 500 -c 0 -i 32 -a 0 -x {0.0 3.0 2 ------- null}
h -t 0.2114 -s 2 -d 3 -p cbr -e 500 -c 0 -i 32 -a 0 -x {0.0 3.0 -1 ------- null}
+ -t 0.2125 -s 1 -d 2 -p cbr -e 210 -c 0 -i 33 -a 0 -x {1.0 3.0 30 ------- null}
- -t 0.2125 -s 1 -d 2 -p cbr -e 210 -c 0 -i 33 -a 0 -x {1.0 3.0 30 ------- null}
h -t 0.2125 -s 1 -d 2 -p cbr -e 210 -c 0 -i 33 -a 0 -x {1.0 3.0 -1 ------- null}
r -t 0.2128 -s 2 -d 3 -p cbr -e 500 -c 0 -i 32 -a 0 -x {0.0 3.0 2 ------- null}
r -t 0.213668 -s 1 -d 2 -p cbr -e 210 -c 0 -i 33 -a 0 -x {1.0 3.0 30 ------- null}
+ -t 0.213668 -s 2 -d 3 -p cbr -e 210 -c 0 -i 33 -a 0 -x {1.0 3.0 30 ------- null}
- -t 0.213668 -s 2 -d 3 -p cbr -e 210 -c 0 -i 33 -a 0 -x {1.0 3.0 30 ------- null}
h -t 0.213668 -s 2 -d 3 -p cbr -e 210 -c 0 -i 33 -a 0 -x {1.0 3.0 -1 ------- null}
r -t 0.214836 -s 2 -d 3 -p cbr -e 210 -c 0 -i 33 -a 0 -x {1.0 3.0 30 ------- null}
+ -t 0.215 -s 0 -d 2 -p cbr -e 500 -c 0 -i 34 -a 0 -x {0.0 3.0 3 ------- null}
- -t 0.215 -s 0 -d 2 -p cbr -e 500 -c 0 -i 34 -a 0 -x {0.0 3.0 3 ------- null}
h -t 0.215 -s 0 -d 2 -p cbr -e 500 -c 0 -i 34 -a 0 -x {0.0 3.0 -1 ------- null}
+ -t 0.21625 -s 1 -d 2 -p cbr -e 210 -c 0 -i 35 -a 0 -x {1.0 3.0 31 ------- null}
- -t 0.21625 -s 1 -d 2 -p cbr -e 210 -c 0 -i 35 -a 0 -x {1.0 3.0 31 ------- null}
h -t 0.21625 -s 1 -d 2 -p cbr -e 210 -c 0 -i 35 -a 0 -x {1.0 3.0 -1 ------- null}
r -t 0.2164 -s 0 -d 2 -p cbr -e 500 -c 0 -i 34 -a 0 -x {0.0 3.0 3 ------- null}
+ -t 0.2164 -s 2 -d 3 -p cbr -e 500 -c 0 -i 34 -a 0 -x {0.0 3.0 3 ------- null}
- -t 0.2164 -s 2 -d 3 -p cbr -e 500 -c 0 -i 34 -a 0 -x {0.0 3.0 3 ------- null}
h -t 0.2164 -s 2 -d 3 -p cbr -e 500 -c 0 -i 34 -a 0 -x {0.0 3.0 -1 ------- null}
r -t 0.217418 -s 1 -d 2 -p cbr -e 210 -c 0 -i 35 -a 0 -x {1.0 3.0 31 ------- null}
+ -t 0.217418 -s 2 -d 3 -p cbr -e 210 -c 0 -i 35 -a 0 -x {1.0 3.0 31 ------- null}
- -t 0.217418 -s 2 -d 3 -p cbr -e 210 -c 0 -i 35 -a 0 -x {1.0 3.0 31 ------- null}
h -t 0.217418 -s 2 -d 3 -p cbr -e 210 -c 0 -i 35 -a 0 -x {1.0 3.0 -1 ------- null}
r -t 0.2178 -s 2 -d 3 -p cbr -e 500 -c 0 -i 34 -a 0 -x {0.0 3.0 3 ------- null}
r -t 0.218586 -s 2 -d 3 -p cbr -e 210 -c 0 -i 35 -a 0 -x {1.0 3.0 31 ------- null}
+ -t 0.22 -s 0 -d 2 -p cbr -e 500 -c 0 -i 36 -a 0 -x {0.0 3.0 4 ------- null}
- -t 0.22 -s 0 -d 2 -p cbr -e 500 -c 0 -i 36 -a 0 -x {0.0 3.0 4 ------- null}
h -t 0.22 -s 0 -d 2 -p cbr -e 500 -c 0 -i 36 -a 0 -x {0.0 3.0 -1 ------- null}
+ -t 0.22 -s 1 -d 2 -p cbr -e 210 -c 0 -i 37 -a 0 -x {1.0 3.0 32 ------- null}
- -t 0.22 -s 1 -d 2 -p cbr -e 210 -c 0 -i 37 -a 0 -x {1.0 3.0 32 ------- null}
h -t 0.22 -s 1 -d 2 -p cbr -e 210 -c 0 -i 37 -a 0 -x {1.0 3.0 -1 ------- null}
r -t 0.221168 -s 1 -d 2 -p cbr -e 210 -c 0 -i 37 -a 0 -x {1.0 3.0 32 ------- null}
+ -t 0.221168 -s 2 -d 3 -p cbr -e 210 -c 0 -i 37 -a 0 -x {1.0 3.0 32 ------- null}
- -t 0.221168 -s 2 -d 3 -p cbr -e 210 -c 0 -i 37 -a 0 -x {1.0 3.0 32 ------- null}
h -t 0.221168 -s 2 -d 3 -p cbr -e 210 -c 0 -i 37 -a 0 -x {1.0 3.0 -1 ------- null}
r -t 0.2214 -s 0 -d 2 -p cbr -e 500 -c 0 -i 36 -a 0 -x {0.0 3.0 4 ------- null}
+ -t 0.2214 -s 2 -d 3 -p cbr -e 500 -c 0 -i 36 -a 0 -x {0.0 3.0 4 ------- null}
- -t 0.2214 -s 2 -d 3 -p cbr -e 500 -c 0 -i 36 -a 0 -x {0.0 3.0 4 ------- null}
h -t 0.2214 -s 2 -d 3 -p cbr -e 500 -c 0 -i 36 -a 0 -x {0.0 3.0 -1 ------- null}
r -t 0.222336 -s 2 -d 3 -p cbr -e 210 -c 0 -i 37 -a 0 -x {1.0 3.0 32 ------- null}
r -t 0.2228 -s 2 -d 3 -p cbr -e 500 -c 0 -i 36 -a 0 -x {0.0 3.0 4 ------- null}
+ -t 0.22375 -s 1 -d 2 -p cbr -e 210 -c 0 -i 38 -a 0 -x {1.0 3.0 33 ------- null}
- -t 0.22375 -s 1 -d 2 -p cbr -e 210 -c 0 -i 38 -a 0 -x {1.0 3.0 33 ------- null}
h -t 0.22375 -s 1 -d 2 -p cbr -e 210 -c 0 -i 38 -a 0 -x {1.0 3.0 -1 ------- null}
r -t 0.224918 -s 1 -d 2 -p cbr -e 210 -c 0 -i 38 -a 0 -x {1.0 3.0 33 ------- null}
+ -t 0.224918 -s 2 -d 3 -p cbr -e 210 -c 0 -i 38 -a 0 -x {1.0 3.0 33 ------- null}
- -t 0.224918 -s 2 -d 3 -p cbr -e 210 -c 0 -i 38 -a 0 -x {1.0 3.0 33 ------- null}
h -t 0.224918 -s 2 -d 3 -p cbr -e 210 -c 0 -i 38 -a 0 -x {1.0 3.0 -1 ------- null}
+ -t 0.225 -s 0 -d 2 -p cbr -e 500 -c 0 -i 39 -a 0 -x {0.0 3.0 5 ------- null}
- -t 0.225 -s 0 -d 2 -p cbr -e 500 -c 0 -i 39 -a 0 -x {0.0 3.0 5 ------- null}
h -t 0.225 -s 0 -d 2 -p cbr -e 500 -c 0 -i 39 -a 0 -x {0.0 3.0 -1 ------- null}
r -t 0.226086 -s 2 -d 3 -p cbr -e 210 -c 0 -i 38 -a 0 -x {1.0 3.0 33 ------- null}
r -t 0.2264 -s 0 -d 2 -p cbr -e 500 -c 0 -i 39 -a 0 -x {0.0 3.0 5 ------- null}
+ -t 0.2264 -s 2 -d 3 -p cbr -e 500 -c 0 -i 39 -a 0 -x {0.0 3.0 5 ------- null}
- -t 0.2264 -s 2 -d 3 -p cbr -e 500 -c 0 -i 39 -a 0 -x {0.0 3.0 5 ------- null}
h -t 0.2264 -s 2 -d 3 -p cbr -e 500 -c 0 -i 39 -a 0 -x {0.0 3.0 -1 ------- null}
+ -t 0.2275 -s 1 -d 2 -p cbr -e 210 -c 0 -i 40 -a 0 -x {1.0 3.0 34 ------- null}
- -t 0.2275 -s 1 -d 2 -p cbr -e 210 -c 0 -i 40 -a 0 -x {1.0 3.0 34 ------- null}
h -t 0.2275 -s 1 -d 2 -p cbr -e 210 -c 0 -i 40 -a 0 -x {1.0 3.0 -1 ------- null}
r -t 0.2278 -s 2 -d 3 -p cbr -e 500 -c 0 -i 39 -a 0 -x {0.0 3.0 5 ------- null}
r -t 0.228668 -s 1 -d 2 -p cbr -e 210 -c 0 -i 40 -a 0 -x {1.0 3.0 34 ------- null}
+ -t 0.228668 -s 2 -d 3 -p cbr -e 210 -c 0 -i 40 -a 0 -x {1.0 3.0 34 ------- null}
- -t 0.228668 -s 2 -d 3 -p cbr -e 210 -c 0 -i 40 -a 0 -x {1.0 3.0 34 ------- null}
h -t 0.228668 -s 2 -d 3 -p cbr -e 210 -c 0 -i 40 -a 0 -x {1.0 3.0 -1 ------- null}
r -t 0.229836 -s 2 -d 3 -p cbr -e 210 -c 0 -i 40 -a 0 -x {1.0 3.0 34 ------- null}
+ -t 0.23 -s 0 -d 2 -p cbr -e 500 -c 0 -i 41 -a 0 -x {0.0 3.0 6 ------- null}
- -t 0.23 -s 0 -d 2 -p cbr -e 500 -c 0 -i 41 -a 0 -x {0.0 3.0 6 ------- null}
h -t 0.23 -s 0 -d 2 -p cbr -e 500 -c 0 -i 41 -a 0 -x {0.0 3.0 -1 ------- null}
+ -t 0.23125 -s 1 -d 2 -p cbr -e 210 -c 0 -i 42 -a 0 -x {1.0 3.0 35 ------- null}
- -t 0.23125 -s 1 -d 2 -p cbr -e 210 -c 0 -i 42 -a 0 -x {1.0 3.0 35 ------- null}
h -t 0.23125 -s 1 -d 2 -p cbr -e 210 -c 0 -i 42 -a 0 -x {1.0 3.0 -1 ------- null}
r -t 0.2314 -s 0 -d 2 -p cbr -e 500 -c 0 -i 41 -a 0 -x {0.0 3.0 6 ------- null}
+ -t 0.2314 -s 2 -d 3 -p cbr -e 500 -c 0 -i 41 -a 0 -x {0.0 3.0 6 ------- null}
- -t 0.2314 -s 2 -d 3 -p cbr -e 500 -c 0 -i 41 -a 0 -x {0.0 3.0 6 ------- null}
h -t 0.2314 -s 2 -d 3 -p cbr -e 500 -c 0 -i 41 -a 0 -x {0.0 3.0 -1 ------- null}
r -t 0.232418 -s 1 -d 2 -p cbr -e 210 -c 0 -i 42 -a 0 -x {1.0 3.0 35 ------- null}
+ -t 0.232418 -s 2 -d 3 -p cbr -e 210 -c 0 -i 42 -a 0 -x {1.0 3.0 35 ------- null}
- -t 0.232418 -s 2 -d 3 -p cbr -e 210 -c 0 -i 42 -a 0 -x {1.0 3.0 35 ------- null}
h -t 0.232418 -s 2 -d 3 -p cbr -e 210 -c 0 -i 42 -a 0 -x {1.0 3.0 -1 ------- null}
r -t 0.2328 -s 2 -d 3 -p cbr -e 500 -c 0 -i 41 -a 0 -x {0.0 3.0 6 ------- null}
r -t 0.233586 -s 2 -d 3 -p cbr -e 210 -c 0 -i 42 -a 0 -x {1.0 3.0 35 ------- null}
+ -t 0.235 -s 0 -d 2 -p cbr -e 500 -c 0 -i 43 -a 0 -x {0.0 3.0 7 ------- null}
- -t 0.235 -s 0 -d 2 -p cbr -e 500 -c 0 -i 43 -a 0 -x {0.0 3.0 7 ------- null}
h -t 0.235 -s 0 -d 2 -p cbr -e 500 -c 0 -i 43 -a 0 -x {0.0 3.0 -1 ------- null}
+ -t 0.235 -s 1 -d 2 -p cbr -e 210 -c 0 -i 44 -a 0 -x {1.0 3.0 36 ------- null}
- -t 0.235 -s 1 -d 2 -p cbr -e 210 -c 0 -i 44 -a 0 -x {1.0 3.0 36 ------- null}
h -t 0.235 -s 1 -d 2 -p cbr -e 210 -c 0 -i 44 -a 0 -x {1.0 3.0 -1 ------- null}
r -t 0.236168 -s 1 -d 2 -p cbr -e 210 -c 0 -i 44 -a 0 -x {1.0 3.0 36 ------- null}
+ -t 0.236168 -s 2 -d 3 -p cbr -e 210 -c 0 -i 44 -a 0 -x {1.0 3.0 36 ------- null}
- -t 0.236168 -s 2 -d 3 -p cbr -e 210 -c 0 -i 44 -a 0 -x {1.0 3.0 36 ------- null}
h -t 0.236168 -s 2 -d 3 -p cbr -e 210 -c 0 -i 44 -a 0 -x {1.0 3.0 -1 ------- null}
r -t 0.2364 -s 0 -d 2 -p cbr -e 500 -c 0 -i 43 -a 0 -x {0.0 3.0 7 ------- null}
+ -t 0.2364 -s 2 -d 3 -p cbr -e 500 -c 0 -i 43 -a 0 -x {0.0 3.0 7 ------- null}
- -t 0.2364 -s 2 -d 3 -p cbr -e 500 -c 0 -i 43 -a 0 -x {0.0 3.0 7 ------- null}
h -t 0.2364 -s 2 -d 3 -p cbr -e 500 -c 0 -i 43 -a 0 -x {0.0 3.0 -1 ------- null}
r -t 0.237336 -s 2 -d 3 -p cbr -e 210 -c 0 -i 44 -a 0 -x {1.0 3.0 36 ------- null}
r -t 0.2378 -s 2 -d 3 -p cbr -e 500 -c 0 -i 43 -a 0 -x {0.0 3.0 7 ------- null}
+ -t 0.23875 -s 1 -d 2 -p cbr -e 210 -c 0 -i 45 -a 0 -x {1.0 3.0 37 ------- null}
- -t 0.23875 -s 1 -d 2 -p cbr -e 210 -c 0 -i 45 -a 0 -x {1.0 3.0 37 ------- null}